/*--------------------------------*- C++ -*----------------------------------*\
| =========                 |                                                 |
| \\      /  F ield         | OpenFOAM: The Open Source CFD Toolbox           |
|  \\    /   O peration     | Version:  2406                                  |
|   \\  /    A nd           | Website:  www.openfoam.com                      |
|    \\/     M anipulation  |                                                 |
\*---------------------------------------------------------------------------*/
FoamFile
{
    version     2.0;
    format      ascii;
    arch        "LSB;label=32;scalar=64";
    class       volScalarField;
    location    "0";
    object      divT_Serial;
}
// * * * * * * * * * * * * * * * * * * * * * * * * * * * * * * * * * * * * * //

dimensions      [0 0 0 0 0 0 0];

internalField   nonuniform List<scalar>
25
(
625000
3374999.999999997
7375000.000000004
12374999.99999999
7750000
30499999.99999999
28374999.99999999
34125000.00000001
39874999.99999996
4000000
87875000.00000003
55624999.99999999
61375000.00000007
67124999.99999997
-22625000.00000002
167749999.9999999
82874999.99999988
88625000.00000001
94374999.99999985
-71749999.99999994
62000000.00000006
-124375000
-141125000.0000001
-158875000
-417250000.0000004
)
;

boundaryField
{
    fixedWalls
    {
        type            calculated;
        value           uniform 0;
    }
    frontAndBack
    {
        type            empty;
    }
}


// ************************************************************************* //
