/*--------------------------------*- C++ -*----------------------------------*\
| =========                 |                                                 |
| \\      /  F ield         | OpenFOAM: The Open Source CFD Toolbox           |
|  \\    /   O peration     | Version:  2406                                  |
|   \\  /    A nd           | Website:  www.openfoam.com                      |
|    \\/     M anipulation  |                                                 |
\*---------------------------------------------------------------------------*/
FoamFile
{
    version     2.0;
    format      ascii;
    arch        "LSB;label=32;scalar=64";
    class       volScalarField;
    location    "0";
    object      divT_OpenMP;
}
// * * * * * * * * * * * * * * * * * * * * * * * * * * * * * * * * * * * * * //

dimensions      [0 0 0 0 0 0 0];

internalField   nonuniform List<scalar>
25
(
0
1249999.999999999
4000000.000000003
7749999.999999993
3500000.000000002
23749999.99999999
22499999.99999998
28250000.00000001
33999999.99999996
250000
80000000.00000006
49750000
55500000.00000006
61249999.99999999
-25250000.00000003
158749999.9999999
76999999.9999999
82749999.99999999
88499999.99999984
-73249999.99999997
75000000.00000003
-105750000
-121250000.0000001
-137750000
-390500000.0000004
)
;

boundaryField
{
    fixedWalls
    {
        type            calculated;
        value           uniform 0;
    }
    frontAndBack
    {
        type            empty;
    }
}


// ************************************************************************* //
