/*--------------------------------*- C++ -*----------------------------------*\
| =========                 |                                                 |
| \\      /  F ield         | OpenFOAM: The Open Source CFD Toolbox           |
|  \\    /   O peration     | Version:  2406                                  |
|   \\  /    A nd           | Website:  www.openfoam.com                      |
|    \\/     M anipulation  |                                                 |
\*---------------------------------------------------------------------------*/
FoamFile
{
    version     2.0;
    format      ascii;
    arch        "LSB;label=32;scalar=64";
    class       volVectorField;
    location    "0";
    object      gradT_OpenMP;
}
// * * * * * * * * * * * * * * * * * * * * * * * * * * * * * * * * * * * * * //

dimensions      [0 0 0 0 0 0 0];

internalField   nonuniform List<vector>
25
(
(25 125 0)
(50 124.9999999999999 0)
(50.00000000000001 124.9999999999999 0)
(49.99999999999996 125 0)
(25.00000000000002 124.9999999999999 0)
(25 250 0)
(49.99999999999998 250.0000000000001 0)
(49.99999999999999 250.0000000000001 0)
(50.00000000000001 250 0)
(25.00000000000001 249.9999999999999 0)
(24.99999999999998 249.9999999999999 4.336808689942019e-13)
(49.99999999999994 249.9999999999999 4.68375338513738e-13)
(50.00000000000008 250.0000000000001 0)
(50.00000000000001 250 0)
(24.99999999999998 250.0000000000002 0)
(24.99999999999994 250 1.734723475976807e-13)
(50.00000000000004 249.9999999999999 1.734723475976806e-13)
(50.00000000000001 250.0000000000001 0)
(49.99999999999993 250 0)
(25.00000000000006 249.9999999999999 0)
(24.99999999999964 125.0000000000002 -6.071532165918826e-13)
(50.00000000000035 125.0000000000001 -6.418476861114189e-13)
(49.99999999999996 124.9999999999998 0)
(49.99999999999991 125.0000000000001 0)
(25.00000000000009 125 0)
)
;

boundaryField
{
    fixedWalls
    {
        type            calculated;
        value           uniform (0 0 0);
    }
    frontAndBack
    {
        type            empty;
    }
}


// ************************************************************************* //
