/*--------------------------------*- C++ -*----------------------------------*\
| =========                 |                                                 |
| \\      /  F ield         | OpenFOAM: The Open Source CFD Toolbox           |
|  \\    /   O peration     | Version:  2406                                  |
|   \\  /    A nd           | Website:  www.openfoam.com                      |
|    \\/     M anipulation  |                                                 |
\*---------------------------------------------------------------------------*/
FoamFile
{
    version     2.0;
    format      ascii;
    arch        "LSB;label=32;scalar=64";
    class       volVectorField;
    location    "0";
    object      gradT_Serial;
}
// * * * * * * * * * * * * * * * * * * * * * * * * * * * * * * * * * * * * * //

dimensions      [0 0 0 0 0 0 0];

internalField   nonuniform List<vector>
25
(
(0 0 0)
(49.99999999999997 49.99999999999999 0)
(50.00000000000004 100 0)
(49.99999999999997 150 0)
(-150.0000000000001 200 0)
(250 249.9999999999999 0)
(49.99999999999998 249.9999999999999 0)
(50.00000000000004 250 0)
(49.99999999999995 249.9999999999999 0)
(10850.00000000002 249.9999999999999 0)
(500.0000000000002 250.0000000000002 3.469446951953617e-13)
(49.99999999999989 250.0000000000001 3.816391647148977e-13)
(50.00000000000008 250.0000000000002 0)
(49.99999999999991 250.0000000000001 0)
(-650.0000000000003 250.0000000000002 0)
(-36749.99999999998 249.9999999999999 1.734723475976806e-13)
(49.99999999999991 249.9999999999998 1.734723475976805e-13)
(50.00000000000001 249.9999999999999 0)
(49.99999999999993 249.9999999999997 0)
(-900.0000000000005 249.9999999999998 0)
(999.9999999999999 -750.0000000000003 -5.204170427930423e-13)
(50.00000000000013 -800.0000000000003 -5.551115123125785e-13)
(49.99999999999996 -850.0000000000006 0)
(49.99999999999991 -900.0000000000007 0)
(2.77901014169559e+80 -950.0000000000006 0)
)
;

boundaryField
{
    fixedWalls
    {
        type            calculated;
        value           uniform (0 0 0);
    }
    frontAndBack
    {
        type            empty;
    }
}


// ************************************************************************* //
