/*--------------------------------*- C++ -*----------------------------------*\
| =========                 |                                                 |
| \\      /  F ield         | OpenFOAM: The Open Source CFD Toolbox           |
|  \\    /   O peration     | Version:  2406                                  |
|   \\  /    A nd           | Website:  www.openfoam.com                      |
|    \\/     M anipulation  |                                                 |
\*---------------------------------------------------------------------------*/
FoamFile
{
    version     2.0;
    format      ascii;
    arch        "LSB;label=32;scalar=64";
    class       volScalarField;
    location    "0";
    object      forAU;
}
// * * * * * * * * * * * * * * * * * * * * * * * * * * * * * * * * * * * * * //

dimensions      [0 0 1 0 0 0 0];

internalField   nonuniform List<scalar>
27
(
0.07260997168038547
0.06950506834131957
0.1077214147976625
0.06789632027035719
0.06848407079795041
0.09493890273074666
0.08690830213832346
0.0870085871174788
0.1592236351217329
0.06125837826665416
0.06901161844773426
0.08860640112722239
0.06794408610620072
0.06014170428488867
0.08428075303619675
0.09870447860508692
0.1009142222331238
0.1509105755160401
0.1021983957152583
0.1025472257140806
0.1388548144475769
0.09000253041861997
0.09505034641707216
0.1538831031062814
0.173936695257839
0.170420744832999
0.5524861878453039
)
;

boundaryField
{
    fixedWalls
    {
        type            extrapolatedCalculated;
        value           nonuniform List<scalar>
54
(
0.08690830213832346
0.09870447860508692
0.173936695257839
0.0870085871174788
0.1009142222331238
0.170420744832999
0.1592236351217329
0.1509105755160401
0.5524861878453039
0.07260997168038547
0.06789632027035719
0.08690830213832346
0.06125837826665416
0.06794408610620072
0.09870447860508692
0.1021983957152583
0.09000253041861997
0.173936695257839
0.1077214147976625
0.09493890273074666
0.1592236351217329
0.08860640112722239
0.08428075303619675
0.1509105755160401
0.1388548144475769
0.1538831031062814
0.5524861878453039
0.07260997168038547
0.06125837826665416
0.1021983957152583
0.06950506834131957
0.06901161844773426
0.1025472257140806
0.1077214147976625
0.08860640112722239
0.1388548144475769
0.07260997168038547
0.06789632027035719
0.08690830213832346
0.06950506834131957
0.06848407079795041
0.0870085871174788
0.1077214147976625
0.09493890273074666
0.1592236351217329
0.1021983957152583
0.09000253041861997
0.173936695257839
0.1025472257140806
0.09505034641707216
0.170420744832999
0.1388548144475769
0.1538831031062814
0.5524861878453039
)
;
    }
}


// ************************************************************************* //
