/*--------------------------------*- C++ -*----------------------------------*\
| =========                 |                                                 |
| \\      /  F ield         | OpenFOAM: The Open Source CFD Toolbox           |
|  \\    /   O peration     | Version:  2406                                  |
|   \\  /    A nd           | Website:  www.openfoam.com                      |
|    \\/     M anipulation  |                                                 |
\*---------------------------------------------------------------------------*/
FoamFile
{
    version     2.0;
    format      ascii;
    arch        "LSB;label=32;scalar=64";
    class       volScalarField;
    location    "0";
    object      forAU;
}
// * * * * * * * * * * * * * * * * * * * * * * * * * * * * * * * * * * * * * //

dimensions      [0 0 1 0 0 0 0];

internalField   nonuniform List<scalar>
27
(
0.1044481199280437
0.06707640122502337
0.08778413228967361
0.1040241716407703
0.06289515755390236
0.08315957584990456
0.1417487383601858
0.08988924489753519
0.1964881898911181
0.08821675477637571
0.08140453054366036
0.09998940815875718
0.1051128495141631
0.07706926211881621
0.1049923705838576
0.1649741318220173
0.09934534046512911
0.1586288204197764
0.153806565153826
0.08367837585161821
0.1425964094076486
0.1597634283963349
0.09974008417740284
0.1457874789879704
0.7663929515573489
0.1928065020491091
0.5524861878453039
)
;

boundaryField
{
    fixedWalls
    {
        type            extrapolatedCalculated;
        value           nonuniform List<scalar>
36
(
0.1417487383601858
0.1649741318220173
0.7663929515573489
0.08988924489753519
0.09934534046512911
0.1928065020491091
0.1964881898911181
0.1586288204197764
0.5524861878453039
0.1044481199280437
0.08821675477637571
0.153806565153826
0.06707640122502337
0.08140453054366036
0.08367837585161821
0.08778413228967361
0.09998940815875718
0.1425964094076486
0.1044481199280437
0.1040241716407703
0.1417487383601858
0.06707640122502337
0.06289515755390236
0.08988924489753519
0.08778413228967361
0.08315957584990456
0.1964881898911181
0.153806565153826
0.1597634283963349
0.7663929515573489
0.08367837585161821
0.09974008417740284
0.1928065020491091
0.1425964094076486
0.1457874789879704
0.5524861878453039
)
;
    }
    inlet
    {
        type            extrapolatedCalculated;
        value           nonuniform List<scalar> 9(0.08778413228967361 0.08315957584990456 0.1964881898911181 0.09998940815875718 0.1049923705838576 0.1586288204197764 0.1425964094076486 0.1457874789879704 0.5524861878453039);
    }
    outlet
    {
        type            extrapolatedCalculated;
        value           nonuniform List<scalar> 9(0.1044481199280437 0.1040241716407703 0.1417487383601858 0.08821675477637571 0.1051128495141631 0.1649741318220173 0.153806565153826 0.1597634283963349 0.7663929515573489);
    }
}


// ************************************************************************* //
