/*--------------------------------*- C++ -*----------------------------------*\
| =========                 |                                                 |
| \\      /  F ield         | OpenFOAM: The Open Source CFD Toolbox           |
|  \\    /   O peration     | Version:  2406                                  |
|   \\  /    A nd           | Website:  www.openfoam.com                      |
|    \\/     M anipulation  |                                                 |
\*---------------------------------------------------------------------------*/
FoamFile
{
    version     2.0;
    format      ascii;
    arch        "LSB;label=32;scalar=64";
    class       volScalarField;
    location    "0";
    object      forAU;
}
// * * * * * * * * * * * * * * * * * * * * * * * * * * * * * * * * * * * * * //

dimensions      [0 0 1 0 0 0 0];

internalField   nonuniform List<scalar>
27
(
0.07239163999814857
0.07047846444353605
0.1010000911863627
0.05915487406930681
0.06884047330089008
0.08676455930768072
0.08874389331174198
0.1001729671701152
0.1475363465727194
0.07740112916969735
0.06498974081826688
0.1019676819054517
0.07414091543771079
0.06942269350025608
0.09214980626275414
0.091062999749309
0.0859353285230712
0.15196969050052
0.1016776886842138
0.09186203061974044
0.1607070306090302
0.1057706400790391
0.117335128997234
0.1765836104720208
0.1514558768814516
0.1335801136344314
0.5524861878453039
)
;

boundaryField
{
    fixedWalls
    {
        type            extrapolatedCalculated;
        value           nonuniform List<scalar>
54
(
0.08874389331174198
0.091062999749309
0.1514558768814516
0.1001729671701152
0.0859353285230712
0.1335801136344314
0.1475363465727194
0.15196969050052
0.5524861878453039
0.07239163999814857
0.05915487406930681
0.08874389331174198
0.07740112916969735
0.07414091543771079
0.091062999749309
0.1016776886842138
0.1057706400790391
0.1514558768814516
0.1010000911863627
0.08676455930768072
0.1475363465727194
0.1019676819054517
0.09214980626275414
0.15196969050052
0.1607070306090302
0.1765836104720208
0.5524861878453039
0.07239163999814857
0.07740112916969735
0.1016776886842138
0.07047846444353605
0.06498974081826688
0.09186203061974044
0.1010000911863627
0.1019676819054517
0.1607070306090302
0.07239163999814857
0.05915487406930681
0.08874389331174198
0.07047846444353605
0.06884047330089008
0.1001729671701152
0.1010000911863627
0.08676455930768072
0.1475363465727194
0.1016776886842138
0.1057706400790391
0.1514558768814516
0.09186203061974044
0.117335128997234
0.1335801136344314
0.1607070306090302
0.1765836104720208
0.5524861878453039
)
;
    }
}


// ************************************************************************* //
