/*--------------------------------*- C++ -*----------------------------------*\
| =========                 |                                                 |
| \\      /  F ield         | OpenFOAM: The Open Source CFD Toolbox           |
|  \\    /   O peration     | Version:  2406                                  |
|   \\  /    A nd           | Website:  www.openfoam.com                      |
|    \\/     M anipulation  |                                                 |
\*---------------------------------------------------------------------------*/
FoamFile
{
    version     2.0;
    format      ascii;
    arch        "LSB;label=32;scalar=64";
    class       volVectorField;
    location    "0";
    object      HbyA;
}
// * * * * * * * * * * * * * * * * * * * * * * * * * * * * * * * * * * * * * //

dimensions      [0 1 -1 0 0 0 0];

internalField   nonuniform List<vector>
27
(
(0.08898481181579851 0.08795993826503642 0.09135924075930117)
(0.8172681413886634 1.012870153476781 0.7551059208123428)
(0.7418066969914612 1.372896231461014 1.405840286923912)
(1.489875767855192 1.867709109040462 1.376819267135211)
(1.897854882787474 2.602356494251693 2.031953946622079)
(2.399998633812711 2.429069758802676 2.897680801544898)
(2.610760274698666 3.606131973872909 2.096420539304234)
(3.136872178851866 3.808385340751387 3.867583793794055)
(4.43296241247626 6.016364013743472 5.533242237395237)
(1.712410289391487 2.135538427876601 1.564661942460807)
(2.527335207196471 2.039256731138123 2.803587745593691)
(3.113152776997291 3.530735950065642 3.736624070855012)
(2.855023899745125 2.480590177087106 2.574643230515338)
(4.204156053279166 4.287912708567123 4.317277109774797)
(4.199193204680999 4.683877987908549 4.801715595380709)
(3.753738077028485 4.852106252442411 4.797372921201337)
(4.677830319437708 4.6600788283516 3.7792051322698)
(9.708414617417176 8.456102339910039 10.3696412499901)
(4.375803839928221 2.328884543783709 4.286402544069263)
(3.375315229192351 3.830721822811828 3.375937441541092)
(4.277677419134536 5.056420502270852 5.980490914822858)
(7.190802581833798 6.853074421000322 6.699267749443545)
(6.369237167585553 6.226260263426526 5.834160111824628)
(6.223489644569241 7.022010141198241 9.312562238159304)
(21.90157616374945 17.60934992391147 21.37237940475919)
(8.01646637208248 6.143873937305998 7.304952780374498)
(27.22518419215528 25.8675663240187 30.45304043107792)
)
;

boundaryField
{
    fixedWalls
    {
        type            extrapolatedCalculated;
        value           nonuniform List<vector>
36
(
(2.610760274698666 3.606131973872909 2.096420539304234)
(3.753738077028485 4.852106252442411 4.797372921201337)
(21.90157616374945 17.60934992391147 21.37237940475919)
(3.136872178851866 3.808385340751387 3.867583793794055)
(4.677830319437708 4.6600788283516 3.7792051322698)
(8.01646637208248 6.143873937305998 7.304952780374498)
(4.43296241247626 6.016364013743472 5.533242237395237)
(9.708414617417176 8.456102339910039 10.3696412499901)
(27.22518419215528 25.8675663240187 30.45304043107792)
(0.08898481181579851 0.08795993826503642 0.09135924075930117)
(1.712410289391487 2.135538427876601 1.564661942460807)
(4.375803839928221 2.328884543783709 4.286402544069263)
(0.8172681413886634 1.012870153476781 0.7551059208123428)
(2.527335207196471 2.039256731138123 2.803587745593691)
(3.375315229192351 3.830721822811828 3.375937441541092)
(0.7418066969914612 1.372896231461014 1.405840286923912)
(3.113152776997291 3.530735950065642 3.736624070855012)
(4.277677419134536 5.056420502270852 5.980490914822858)
(0.08898481181579851 0.08795993826503642 0.09135924075930117)
(1.489875767855192 1.867709109040462 1.376819267135211)
(2.610760274698666 3.606131973872909 2.096420539304234)
(0.8172681413886634 1.012870153476781 0.7551059208123428)
(1.897854882787474 2.602356494251693 2.031953946622079)
(3.136872178851866 3.808385340751387 3.867583793794055)
(0.7418066969914612 1.372896231461014 1.405840286923912)
(2.399998633812711 2.429069758802676 2.897680801544898)
(4.43296241247626 6.016364013743472 5.533242237395237)
(4.375803839928221 2.328884543783709 4.286402544069263)
(7.190802581833798 6.853074421000322 6.699267749443545)
(21.90157616374945 17.60934992391147 21.37237940475919)
(3.375315229192351 3.830721822811828 3.375937441541092)
(6.369237167585553 6.226260263426526 5.834160111824628)
(8.01646637208248 6.143873937305998 7.304952780374498)
(4.277677419134536 5.056420502270852 5.980490914822858)
(6.223489644569241 7.022010141198241 9.312562238159304)
(27.22518419215528 25.8675663240187 30.45304043107792)
)
;
    }
    inlet
    {
        type            extrapolatedCalculated;
        value           nonuniform List<vector> 9((0.7418066969914612 1.372896231461014 1.405840286923912) (2.399998633812711 2.429069758802676 2.897680801544898) (4.43296241247626 6.016364013743472 5.533242237395237) (3.113152776997291 3.530735950065642 3.736624070855012) (4.199193204680999 4.683877987908549 4.801715595380709) (9.708414617417176 8.456102339910039 10.3696412499901) (4.277677419134536 5.056420502270852 5.980490914822858) (6.223489644569241 7.022010141198241 9.312562238159304) (27.22518419215528 25.8675663240187 30.45304043107792));
    }
    outlet
    {
        type            extrapolatedCalculated;
        value           nonuniform List<vector> 9((0.08898481181579851 0.08795993826503642 0.09135924075930117) (1.489875767855192 1.867709109040462 1.376819267135211) (2.610760274698666 3.606131973872909 2.096420539304234) (1.712410289391487 2.135538427876601 1.564661942460807) (2.855023899745125 2.480590177087106 2.574643230515338) (3.753738077028485 4.852106252442411 4.797372921201337) (4.375803839928221 2.328884543783709 4.286402544069263) (7.190802581833798 6.853074421000322 6.699267749443545) (21.90157616374945 17.60934992391147 21.37237940475919));
    }
}


// ************************************************************************* //
