/*--------------------------------*- C++ -*----------------------------------*\
| =========                 |                                                 |
| \\      /  F ield         | OpenFOAM: The Open Source CFD Toolbox           |
|  \\    /   O peration     | Version:  2406                                  |
|   \\  /    A nd           | Website:  www.openfoam.com                      |
|    \\/     M anipulation  |                                                 |
\*---------------------------------------------------------------------------*/
FoamFile
{
    version     2.0;
    format      ascii;
    arch        "LSB;label=32;scalar=64";
    class       volVectorField;
    location    "0";
    object      HbyA;
}
// * * * * * * * * * * * * * * * * * * * * * * * * * * * * * * * * * * * * * //

dimensions      [0 1 -1 0 0 0 0];

internalField   nonuniform List<vector>
27
(
(0.3230007952917653 0.0631862583209308 0.06490318119322604)
(1.811272889488189 1.073723117503116 1.362458594014523)
(1.803052389592239 1.189244578382861 1.912253081441352)
(1.273090517675352 0.647609408070167 0.8315768455248305)
(3.168122142981984 2.00444694785836 2.553032607761406)
(3.37073273177372 3.527476967286586 3.728849111883509)
(2.819044601216642 1.646946839538547 1.767144708166181)
(3.625304660364303 3.714888890296833 3.681897688151178)
(4.090993900556883 5.998349396099515 6.081631262243383)
(1.455618257623272 0.7488776935707524 0.955438096672556)
(2.918433563193729 2.37452234302775 2.316576272996956)
(4.001882327164482 4.367205425932555 3.806396101616695)
(2.951258025506747 2.266812819310751 1.90884249474011)
(4.689897442802526 3.627007260049467 4.571450443734125)
(4.783730946444134 5.266481646532739 5.238989441418002)
(3.828668089025812 2.918215294553406 3.538326493086605)
(4.37434936237258 4.018232631491789 3.797926480141228)
(12.21358302410667 12.61533746865032 10.98318099030404)
(1.959746656148525 1.738118316457897 1.118978569888017)
(3.676593596437935 3.86091928184923 3.516128639552813)
(6.507391068044867 6.466483228101477 5.869880538856612)
(5.592251615294479 4.252374498028537 5.611412798974895)
(5.736525454589074 5.227387780621572 5.007958155193731)
(9.482515703838715 11.51799917065081 8.275788821167815)
(4.892106080867478 4.830568076766179 4.00207441307686)
(8.975918922555943 9.24408877986844 7.519312990564137)
(28.93637791487233 31.054484040394 31.87557542431028)
)
;

boundaryField
{
    fixedWalls
    {
        type            extrapolatedCalculated;
        value           nonuniform List<vector>
54
(
(2.819044601216642 1.646946839538547 1.767144708166181)
(3.828668089025812 2.918215294553406 3.538326493086605)
(4.892106080867478 4.830568076766179 4.00207441307686)
(3.625304660364303 3.714888890296833 3.681897688151178)
(4.37434936237258 4.018232631491789 3.797926480141228)
(8.975918922555943 9.24408877986844 7.519312990564137)
(4.090993900556883 5.998349396099515 6.081631262243383)
(12.21358302410667 12.61533746865032 10.98318099030404)
(28.93637791487233 31.054484040394 31.87557542431028)
(0.3230007952917653 0.0631862583209308 0.06490318119322604)
(1.273090517675352 0.647609408070167 0.8315768455248305)
(2.819044601216642 1.646946839538547 1.767144708166181)
(1.455618257623272 0.7488776935707524 0.955438096672556)
(2.951258025506747 2.266812819310751 1.90884249474011)
(3.828668089025812 2.918215294553406 3.538326493086605)
(1.959746656148525 1.738118316457897 1.118978569888017)
(5.592251615294479 4.252374498028537 5.611412798974895)
(4.892106080867478 4.830568076766179 4.00207441307686)
(1.803052389592239 1.189244578382861 1.912253081441352)
(3.37073273177372 3.527476967286586 3.728849111883509)
(4.090993900556883 5.998349396099515 6.081631262243383)
(4.001882327164482 4.367205425932555 3.806396101616695)
(4.783730946444134 5.266481646532739 5.238989441418002)
(12.21358302410667 12.61533746865032 10.98318099030404)
(6.507391068044867 6.466483228101477 5.869880538856612)
(9.482515703838715 11.51799917065081 8.275788821167815)
(28.93637791487233 31.054484040394 31.87557542431028)
(0.3230007952917653 0.0631862583209308 0.06490318119322604)
(1.455618257623272 0.7488776935707524 0.955438096672556)
(1.959746656148525 1.738118316457897 1.118978569888017)
(1.811272889488189 1.073723117503116 1.362458594014523)
(2.918433563193729 2.37452234302775 2.316576272996956)
(3.676593596437935 3.86091928184923 3.516128639552813)
(1.803052389592239 1.189244578382861 1.912253081441352)
(4.001882327164482 4.367205425932555 3.806396101616695)
(6.507391068044867 6.466483228101477 5.869880538856612)
(0.3230007952917653 0.0631862583209308 0.06490318119322604)
(1.273090517675352 0.647609408070167 0.8315768455248305)
(2.819044601216642 1.646946839538547 1.767144708166181)
(1.811272889488189 1.073723117503116 1.362458594014523)
(3.168122142981984 2.00444694785836 2.553032607761406)
(3.625304660364303 3.714888890296833 3.681897688151178)
(1.803052389592239 1.189244578382861 1.912253081441352)
(3.37073273177372 3.527476967286586 3.728849111883509)
(4.090993900556883 5.998349396099515 6.081631262243383)
(1.959746656148525 1.738118316457897 1.118978569888017)
(5.592251615294479 4.252374498028537 5.611412798974895)
(4.892106080867478 4.830568076766179 4.00207441307686)
(3.676593596437935 3.86091928184923 3.516128639552813)
(5.736525454589074 5.227387780621572 5.007958155193731)
(8.975918922555943 9.24408877986844 7.519312990564137)
(6.507391068044867 6.466483228101477 5.869880538856612)
(9.482515703838715 11.51799917065081 8.275788821167815)
(28.93637791487233 31.054484040394 31.87557542431028)
)
;
    }
}


// ************************************************************************* //
