/*--------------------------------*- C++ -*----------------------------------*\
| =========                 |                                                 |
| \\      /  F ield         | OpenFOAM: The Open Source CFD Toolbox           |
|  \\    /   O peration     | Version:  2406                                  |
|   \\  /    A nd           | Website:  www.openfoam.com                      |
|    \\/     M anipulation  |                                                 |
\*---------------------------------------------------------------------------*/
FoamFile
{
    version     2.0;
    format      ascii;
    arch        "LSB;label=32;scalar=64";
    class       volVectorField;
    location    "0";
    object      HbyA;
}
// * * * * * * * * * * * * * * * * * * * * * * * * * * * * * * * * * * * * * //

dimensions      [0 1 -1 0 0 0 0];

internalField   nonuniform List<vector>
27
(
(0.3137866601864422 0.06477625361820015 0.08685710709350163)
(1.582449421806916 0.8601731836846198 1.042596622113725)
(0.8455720290199469 1.58853815867635 1.752743360409095)
(1.248350038397078 0.5937037603614906 0.7097312664863554)
(2.148872116575653 2.564227900378509 3.364471800349959)
(3.117192779225975 3.571412960846892 2.712348559175464)
(1.613319377442883 1.113601314936548 1.931803880340675)
(3.922615860639151 4.23265602722728 3.459454516409094)
(4.014946311222149 5.544671188571373 4.683494669829753)
(1.671238823683665 0.8030612354545338 0.9707245939686977)
(1.763614523503123 2.277791002859083 2.695502353361487)
(3.339981642675686 3.013340746842821 2.377445628061226)
(2.134369549588543 1.861897378197327 2.833594250383409)
(4.21456703867234 3.858143225130662 3.253913325315652)
(3.769620603242591 4.74269798243397 4.240565552922292)
(4.092833407421093 4.474100726075903 3.882617799330571)
(4.552078887502291 4.396964283882019 3.980785156416021)
(5.81372736856356 7.209384244251516 7.157801802171957)
(1.353934650874582 1.141855922996671 1.484767649025314)
(4.513992192899189 3.608405482608259 2.817287384574791)
(4.389509201837742 3.860834158150004 5.303499744648628)
(4.2770970470436 4.007393472466964 3.252320850611806)
(5.009226780354958 5.110749823022215 4.181862552928966)
(7.007914709767225 7.03297291409221 8.205315287550365)
(6.136683013757764 4.566106803852669 4.7628627943437)
(7.266910471488659 7.259928101231672 8.482717414606817)
(34.64074459639776 33.77690693564714 36.02252993637664)
)
;

boundaryField
{
    fixedWalls
    {
        type            extrapolatedCalculated;
        value           nonuniform List<vector>
54
(
(1.613319377442883 1.113601314936548 1.931803880340675)
(4.092833407421093 4.474100726075903 3.882617799330571)
(6.136683013757764 4.566106803852669 4.7628627943437)
(3.922615860639151 4.23265602722728 3.459454516409094)
(4.552078887502291 4.396964283882019 3.980785156416021)
(7.266910471488659 7.259928101231672 8.482717414606817)
(4.014946311222149 5.544671188571373 4.683494669829753)
(5.81372736856356 7.209384244251516 7.157801802171957)
(34.64074459639776 33.77690693564714 36.02252993637664)
(0.3137866601864422 0.06477625361820015 0.08685710709350163)
(1.248350038397078 0.5937037603614906 0.7097312664863554)
(1.613319377442883 1.113601314936548 1.931803880340675)
(1.671238823683665 0.8030612354545338 0.9707245939686977)
(2.134369549588543 1.861897378197327 2.833594250383409)
(4.092833407421093 4.474100726075903 3.882617799330571)
(1.353934650874582 1.141855922996671 1.484767649025314)
(4.2770970470436 4.007393472466964 3.252320850611806)
(6.136683013757764 4.566106803852669 4.7628627943437)
(0.8455720290199469 1.58853815867635 1.752743360409095)
(3.117192779225975 3.571412960846892 2.712348559175464)
(4.014946311222149 5.544671188571373 4.683494669829753)
(3.339981642675686 3.013340746842821 2.377445628061226)
(3.769620603242591 4.74269798243397 4.240565552922292)
(5.81372736856356 7.209384244251516 7.157801802171957)
(4.389509201837742 3.860834158150004 5.303499744648628)
(7.007914709767225 7.03297291409221 8.205315287550365)
(34.64074459639776 33.77690693564714 36.02252993637664)
(0.3137866601864422 0.06477625361820015 0.08685710709350163)
(1.671238823683665 0.8030612354545338 0.9707245939686977)
(1.353934650874582 1.141855922996671 1.484767649025314)
(1.582449421806916 0.8601731836846198 1.042596622113725)
(1.763614523503123 2.277791002859083 2.695502353361487)
(4.513992192899189 3.608405482608259 2.817287384574791)
(0.8455720290199469 1.58853815867635 1.752743360409095)
(3.339981642675686 3.013340746842821 2.377445628061226)
(4.389509201837742 3.860834158150004 5.303499744648628)
(0.3137866601864422 0.06477625361820015 0.08685710709350163)
(1.248350038397078 0.5937037603614906 0.7097312664863554)
(1.613319377442883 1.113601314936548 1.931803880340675)
(1.582449421806916 0.8601731836846198 1.042596622113725)
(2.148872116575653 2.564227900378509 3.364471800349959)
(3.922615860639151 4.23265602722728 3.459454516409094)
(0.8455720290199469 1.58853815867635 1.752743360409095)
(3.117192779225975 3.571412960846892 2.712348559175464)
(4.014946311222149 5.544671188571373 4.683494669829753)
(1.353934650874582 1.141855922996671 1.484767649025314)
(4.2770970470436 4.007393472466964 3.252320850611806)
(6.136683013757764 4.566106803852669 4.7628627943437)
(4.513992192899189 3.608405482608259 2.817287384574791)
(5.009226780354958 5.110749823022215 4.181862552928966)
(7.266910471488659 7.259928101231672 8.482717414606817)
(4.389509201837742 3.860834158150004 5.303499744648628)
(7.007914709767225 7.03297291409221 8.205315287550365)
(34.64074459639776 33.77690693564714 36.02252993637664)
)
;
    }
}


// ************************************************************************* //
