/*--------------------------------*- C++ -*----------------------------------*\
| =========                 |                                                 |
| \\      /  F ield         | OpenFOAM: The Open Source CFD Toolbox           |
|  \\    /   O peration     | Version:  2406                                  |
|   \\  /    A nd           | Website:  www.openfoam.com                      |
|    \\/     M anipulation  |                                                 |
\*---------------------------------------------------------------------------*/
FoamFile
{
    version     2.0;
    format      ascii;
    arch        "LSB;label=32;scalar=64";
    class       volVectorField;
    location    "0";
    object      nfHbyASerialExecutor;
}
// * * * * * * * * * * * * * * * * * * * * * * * * * * * * * * * * * * * * * //

dimensions      [0 0 0 0 0 0 0];

internalField   nonuniform List<vector>
27
(
(0.08764134962485985 0.1017828341013895 0.07079739137718151)
(0.7050545239152295 1.026401923966601 1.085667181824087)
(1.377949425803065 2.21013730789634 1.270107305702751)
(1.269306043914809 1.883869856781217 1.968081098560039)
(2.652692646405148 3.14213932507168 2.095101664106236)
(2.475271119831591 2.36895749531533 3.287189064262884)
(4.123917692734594 4.330444860855079 3.367396549290092)
(2.627628729712928 3.235431581494592 3.22514553192579)
(5.020593786562705 3.999262755812855 5.070911917895314)
(1.145602898311499 1.71046121794913 1.792907581711273)
(1.954792452561507 2.411339344029025 1.58542968140301)
(2.565867217216985 2.669563476287431 3.555404721372791)
(2.975574817232487 3.13541091011364 2.489272696896449)
(2.747160332689851 3.049276559786689 3.666587351622976)
(5.601434138426233 4.363085760389262 5.938642495975142)
(4.558851997957123 6.336263115770519 6.12443631724704)
(4.109291844834047 3.548884990731663 3.665213392286446)
(6.374825345386051 6.292742082287275 6.424356646356076)
(2.365266674904244 2.542507963649469 2.069119837409812)
(2.212664139607836 3.245798136704265 3.478005395917883)
(4.716664951654975 6.372035275902462 6.667925586679877)
(5.680175029306908 7.979891510257033 9.151882252372078)
(5.183729272354974 4.685594499045576 5.492766166452628)
(7.293796006584998 7.570006165349927 10.21478187911985)
(14.76020592123596 12.14037422666105 15.02681361578204)
(6.652940948085231 7.098042549205181 7.792640929264638)
(24.61538805219408 24.3088589506444 31.04455665875632)
)
;

boundaryField
{
    fixedWalls
    {
        type            calculated;
        value           uniform (0 0 0);
    }
    inlet
    {
        type            calculated;
        value           uniform (0 0 0);
    }
    outlet
    {
        type            calculated;
        value           uniform (0 0 0);
    }
}


// ************************************************************************* //
