/*--------------------------------*- C++ -*----------------------------------*\
| =========                 |                                                 |
| \\      /  F ield         | OpenFOAM: The Open Source CFD Toolbox           |
|  \\    /   O peration     | Version:  2406                                  |
|   \\  /    A nd           | Website:  www.openfoam.com                      |
|    \\/     M anipulation  |                                                 |
\*---------------------------------------------------------------------------*/
FoamFile
{
    version     2.0;
    format      ascii;
    arch        "LSB;label=32;scalar=64";
    class       volVectorField;
    location    "0";
    object      nfHbyA;
}
// * * * * * * * * * * * * * * * * * * * * * * * * * * * * * * * * * * * * * //

dimensions      [0 0 0 0 0 0 0];

internalField   nonuniform List<vector>
27
(
(0.3137866601864423 0.06477625361820016 0.08685710709350164)
(1.582449421806916 0.86017318368462 1.042596622113725)
(0.8455720290199469 1.58853815867635 1.752743360409095)
(1.248350038397078 0.5937037603614909 0.7097312664863556)
(2.148872116575653 2.564227900378509 3.364471800349959)
(3.117192779225974 3.571412960846891 2.712348559175463)
(1.613319377442882 1.113601314936547 1.931803880340674)
(3.92261586063915 4.232656027227277 3.459454516409092)
(4.014946311222149 5.544671188571374 4.683494669829754)
(1.671238823683665 0.8030612354545337 0.9707245939686976)
(1.763614523503123 2.277791002859084 2.695502353361487)
(3.339981642675685 3.013340746842821 2.377445628061225)
(2.134369549588544 1.861897378197327 2.83359425038341)
(4.214567038672342 3.858143225130663 3.253913325315653)
(3.769620603242589 4.742697982433969 4.240565552922291)
(4.092833407421092 4.474100726075902 3.88261779933057)
(4.55207888750229 4.396964283882017 3.98078515641602)
(5.81372736856356 7.209384244251516 7.157801802171957)
(1.353934650874581 1.141855922996671 1.484767649025313)
(4.513992192899187 3.608405482608258 2.817287384574789)
(4.389509201837742 3.860834158150004 5.303499744648628)
(4.277097047043599 4.007393472466964 3.252320850611805)
(5.009226780354956 5.110749823022213 4.181862552928965)
(7.007914709767226 7.03297291409221 8.205315287550363)
(6.136683013757766 4.56610680385267 4.7628627943437)
(7.26691047148866 7.259928101231673 8.482717414606817)
(34.64074459639776 33.77690693564715 36.02252993637664)
)
;

boundaryField
{
    fixedWalls
    {
        type            calculated;
        value           uniform (0 0 0);
    }
}


// ************************************************************************* //
