/*--------------------------------*- C++ -*----------------------------------*\
| =========                 |                                                 |
| \\      /  F ield         | OpenFOAM: The Open Source CFD Toolbox           |
|  \\    /   O peration     | Version:  2406                                  |
|   \\  /    A nd           | Website:  www.openfoam.com                      |
|    \\/     M anipulation  |                                                 |
\*---------------------------------------------------------------------------*/
FoamFile
{
    version     2.0;
    format      ascii;
    arch        "LSB;label=32;scalar=64";
    class       volVectorField;
    location    "0";
    object      nfHbyAGPUExecutor;
}
// * * * * * * * * * * * * * * * * * * * * * * * * * * * * * * * * * * * * * //

dimensions      [0 0 0 0 0 0 0];

internalField   nonuniform List<vector>
27
(
(0.08898481181579872 0.08795993826503669 0.09135924075930134)
(0.8172681413886635 1.012870153476781 0.7551059208123428)
(0.7418066969914611 1.372896231461014 1.405840286923912)
(1.489875767855192 1.867709109040462 1.376819267135211)
(1.897854882787475 2.602356494251694 2.03195394662208)
(2.39999863381271 2.429069758802676 2.897680801544898)
(2.610760274698666 3.606131973872908 2.096420539304233)
(3.136872178851865 3.808385340751387 3.867583793794054)
(4.43296241247626 6.016364013743472 5.533242237395237)
(1.712410289391486 2.1355384278766 1.564661942460807)
(2.527335207196471 2.039256731138124 2.803587745593692)
(3.11315277699729 3.53073595006564 3.736624070855011)
(2.855023899745123 2.480590177087104 2.574643230515336)
(4.204156053279167 4.287912708567124 4.317277109774798)
(4.199193204680998 4.683877987908549 4.801715595380707)
(3.753738077028485 4.852106252442411 4.797372921201337)
(4.677830319437707 4.660078828351598 3.779205132269798)
(9.70841461741718 8.456102339910043 10.3696412499901)
(4.375803839928222 2.32888454378371 4.286402544069265)
(3.375315229192349 3.830721822811827 3.375937441541091)
(4.277677419134536 5.056420502270852 5.980490914822858)
(7.190802581833798 6.853074421000322 6.699267749443546)
(6.369237167585552 6.226260263426524 5.834160111824626)
(6.223489644569242 7.022010141198242 9.312562238159304)
(21.90157616374945 17.60934992391147 21.3723794047592)
(8.01646637208248 6.143873937305998 7.304952780374498)
(27.22518419215529 25.86756632401871 30.45304043107793)
)
;

boundaryField
{
    fixedWalls
    {
        type            calculated;
        value           uniform (0 0 0);
    }
    inlet
    {
        type            calculated;
        value           uniform (0 0 0);
    }
    outlet
    {
        type            calculated;
        value           uniform (0 0 0);
    }
}


// ************************************************************************* //
