/*--------------------------------*- C++ -*----------------------------------*\
| =========                 |                                                 |
| \\      /  F ield         | OpenFOAM: The Open Source CFD Toolbox           |
|  \\    /   O peration     | Version:  2406                                  |
|   \\  /    A nd           | Website:  www.openfoam.com                      |
|    \\/     M anipulation  |                                                 |
\*---------------------------------------------------------------------------*/
FoamFile
{
    version     2.0;
    format      ascii;
    arch        "LSB;label=32;scalar=64";
    class       volVectorField;
    location    "0";
    object      nfHbyA;
}
// * * * * * * * * * * * * * * * * * * * * * * * * * * * * * * * * * * * * * //

dimensions      [0 0 0 0 0 0 0];

internalField   nonuniform List<vector>
27
(
(0.3230007952917653 0.06318625832093082 0.06490318119322605)
(1.81127288948819 1.073723117503116 1.362458594014524)
(1.803052389592239 1.189244578382861 1.912253081441352)
(1.273090517675353 0.6476094080701671 0.8315768455248307)
(3.168122142981985 2.004446947858361 2.553032607761406)
(3.370732731773719 3.527476967286585 3.728849111883508)
(2.819044601216642 1.646946839538547 1.76714470816618)
(3.625304660364302 3.714888890296832 3.681897688151176)
(4.090993900556885 5.998349396099517 6.081631262243385)
(1.455618257623273 0.7488776935707526 0.9554380966725563)
(2.918433563193731 2.37452234302775 2.316576272996957)
(4.001882327164481 4.367205425932554 3.806396101616695)
(2.951258025506747 2.266812819310752 1.90884249474011)
(4.689897442802527 3.627007260049468 4.571450443734126)
(4.783730946444133 5.266481646532738 5.238989441418001)
(3.828668089025812 2.918215294553405 3.538326493086604)
(4.374349362372579 4.018232631491788 3.797926480141227)
(12.21358302410668 12.61533746865032 10.98318099030405)
(1.959746656148525 1.738118316457898 1.118978569888017)
(3.676593596437935 3.86091928184923 3.516128639552812)
(6.507391068044867 6.466483228101476 5.869880538856612)
(5.592251615294477 4.252374498028536 5.611412798974893)
(5.736525454589072 5.22738778062157 5.00795815519373)
(9.482515703838715 11.51799917065081 8.275788821167817)
(4.89210608086748 4.83056807676618 4.002074413076862)
(8.975918922555941 9.24408877986844 7.519312990564136)
(28.93637791487235 31.05448404039401 31.87557542431029)
)
;

boundaryField
{
    fixedWalls
    {
        type            calculated;
        value           uniform (0 0 0);
    }
}


// ************************************************************************* //
