/*--------------------------------*- C++ -*----------------------------------*\
| =========                 |                                                 |
| \\      /  F ield         | OpenFOAM: The Open Source CFD Toolbox           |
|  \\    /   O peration     | Version:  2406                                  |
|   \\  /    A nd           | Website:  www.openfoam.com                      |
|    \\/     M anipulation  |                                                 |
\*---------------------------------------------------------------------------*/
FoamFile
{
    version     2.0;
    format      ascii;
    arch        "LSB;label=32;scalar=64";
    class       volVectorField;
    location    "0";
    object      nfHbyACPUExecutor;
}
// * * * * * * * * * * * * * * * * * * * * * * * * * * * * * * * * * * * * * //

dimensions      [0 0 0 0 0 0 0];

internalField   nonuniform List<vector>
27
(
(0.07364699283474266 0.09221891165588986 0.1001663917142601)
(1.081515059547344 1.256111056746131 1.101155822139779)
(1.444188194941553 1.746163331475382 1.853098131902965)
(1.38297722872167 1.597229089465489 1.423373453057508)
(1.801560026474377 2.288769532131942 2.516425985153592)
(3.126881513096456 2.528356901851391 2.091210244895614)
(2.10845007564631 3.247212226468734 3.651682668888357)
(2.978142898018374 3.037875233878233 2.690165368069876)
(5.162054985811498 4.626108484045511 6.725014914128793)
(1.874634111568715 2.173661411904719 1.924394798069123)
(1.844476375168873 2.068231647926465 2.188825304390065)
(2.480573982025101 3.076193146090069 2.190354434603615)
(3.356291874630461 4.701470006210092 5.1551907369375)
(4.125869396184723 3.549359296987458 3.781636226267358)
(4.106759758492358 5.025669796128052 5.464825350676925)
(5.922000052332507 5.568476814980864 5.929591806928727)
(5.640636887559299 5.186194887553212 5.993116566163697)
(10.1312286746601 11.02129835090555 9.932225922831712)
(2.724508054372886 3.365085600959608 3.564620384064464)
(3.005086015907719 3.234200852968823 2.373326351153236)
(4.486177335592032 6.383269366099618 5.106980940310827)
(7.767646001949744 5.350818377466971 5.835128599277031)
(4.498034441634371 5.725115424961935 4.533855257171177)
(9.119713806211848 9.58780420609455 8.40038651517318)
(25.06337777157591 22.55500578942525 21.76420747998697)
(9.39564471745682 8.676109732386317 8.037492391236517)
(22.64558672241336 24.67526553851501 25.80652093189445)
)
;

boundaryField
{
    fixedWalls
    {
        type            calculated;
        value           uniform (0 0 0);
    }
    inlet
    {
        type            calculated;
        value           uniform (0 0 0);
    }
    outlet
    {
        type            calculated;
        value           uniform (0 0 0);
    }
}


// ************************************************************************* //
