/*--------------------------------*- C++ -*----------------------------------*\
| =========                 |                                                 |
| \\      /  F ield         | OpenFOAM: The Open Source CFD Toolbox           |
|  \\    /   O peration     | Version:  2406                                  |
|   \\  /    A nd           | Website:  www.openfoam.com                      |
|    \\/     M anipulation  |                                                 |
\*---------------------------------------------------------------------------*/
FoamFile
{
    version     2.0;
    format      ascii;
    arch        "LSB;label=32;scalar=64";
    class       volScalarField;
    location    "0";
    object      nfrAU;
}
// * * * * * * * * * * * * * * * * * * * * * * * * * * * * * * * * * * * * * //

dimensions      [0 0 0 0 0 0 0];

internalField   nonuniform List<scalar>
27
(
0.07260997168038548
0.06950506834131956
0.1077214147976625
0.06789632027035719
0.06848407079795041
0.09493890273074665
0.08690830213832346
0.08700858711747878
0.159223635121733
0.06125837826665418
0.06901161844773426
0.08860640112722236
0.0679440861062007
0.06014170428488868
0.08428075303619674
0.09870447860508691
0.1009142222331238
0.1509105755160401
0.1021983957152583
0.1025472257140805
0.1388548144475769
0.09000253041861996
0.09505034641707215
0.1538831031062814
0.1739366952578391
0.170420744832999
0.552486187845304
)
;

boundaryField
{
    fixedWalls
    {
        type            calculated;
        value           uniform 0;
    }
}


// ************************************************************************* //
