/*--------------------------------*- C++ -*----------------------------------*\
| =========                 |                                                 |
| \\      /  F ield         | OpenFOAM: The Open Source CFD Toolbox           |
|  \\    /   O peration     | Version:  2406                                  |
|   \\  /    A nd           | Website:  www.openfoam.com                      |
|    \\/     M anipulation  |                                                 |
\*---------------------------------------------------------------------------*/
FoamFile
{
    version     2.0;
    format      ascii;
    arch        "LSB;label=32;scalar=64";
    class       volScalarField;
    location    "0";
    object      nfrAUGPUExecutor;
}
// * * * * * * * * * * * * * * * * * * * * * * * * * * * * * * * * * * * * * //

dimensions      [0 0 0 0 0 0 0];

internalField   nonuniform List<scalar>
27
(
0.1044481199280437
0.06707640122502335
0.08778413228967359
0.1040241716407703
0.06289515755390239
0.08315957584990455
0.1417487383601858
0.08988924489753516
0.1964881898911181
0.08821675477637571
0.08140453054366034
0.09998940815875713
0.105112849514163
0.07706926211881618
0.1049923705838576
0.1649741318220173
0.09934534046512908
0.1586288204197764
0.153806565153826
0.08367837585161819
0.1425964094076486
0.1597634283963349
0.09974008417740281
0.1457874789879704
0.7663929515573489
0.1928065020491092
0.552486187845304
)
;

boundaryField
{
    fixedWalls
    {
        type            calculated;
        value           uniform 0;
    }
    inlet
    {
        type            calculated;
        value           uniform 0;
    }
    outlet
    {
        type            calculated;
        value           uniform 0;
    }
}


// ************************************************************************* //
