/*--------------------------------*- C++ -*----------------------------------*\
| =========                 |                                                 |
| \\      /  F ield         | OpenFOAM: The Open Source CFD Toolbox           |
|  \\    /   O peration     | Version:  2406                                  |
|   \\  /    A nd           | Website:  www.openfoam.com                      |
|    \\/     M anipulation  |                                                 |
\*---------------------------------------------------------------------------*/
FoamFile
{
    version     2.0;
    format      ascii;
    arch        "LSB;label=32;scalar=64";
    class       volScalarField;
    location    "0";
    object      nfrAUCPUExecutor;
}
// * * * * * * * * * * * * * * * * * * * * * * * * * * * * * * * * * * * * * //

dimensions      [0 0 0 0 0 0 0];

internalField   nonuniform List<scalar>
27
(
0.09362750976948493
0.06291551667701284
0.08997249337790607
0.1149771683532997
0.06431117219886548
0.1089051915157067
0.1390645787958577
0.08809511839026619
0.1515178147064926
0.09237550294259132
0.06268677942289043
0.09299633034062139
0.104982305736472
0.0662354718322547
0.09540717389198572
0.1307406429934287
0.09478819288238961
0.1622254454725041
0.1811494917241677
0.09091705302658845
0.1602806571200033
0.165210378163058
0.0880581968075812
0.1646176836556326
1.639282900163997
0.1647354630418076
0.552486187845304
)
;

boundaryField
{
    fixedWalls
    {
        type            calculated;
        value           uniform 0;
    }
    inlet
    {
        type            calculated;
        value           uniform 0;
    }
    outlet
    {
        type            calculated;
        value           uniform 0;
    }
}


// ************************************************************************* //
