/*--------------------------------*- C++ -*----------------------------------*\
| =========                 |                                                 |
| \\      /  F ield         | OpenFOAM: The Open Source CFD Toolbox           |
|  \\    /   O peration     | Version:  2406                                  |
|   \\  /    A nd           | Website:  www.openfoam.com                      |
|    \\/     M anipulation  |                                                 |
\*---------------------------------------------------------------------------*/
FoamFile
{
    version     2.0;
    format      ascii;
    arch        "LSB;label=32;scalar=64";
    class       volScalarField;
    location    "0";
    object      nfrAUSerialExecutor;
}
// * * * * * * * * * * * * * * * * * * * * * * * * * * * * * * * * * * * * * //

dimensions      [0 0 0 0 0 0 0];

internalField   nonuniform List<scalar>
27
(
0.1058097392276945
0.07130413912159243
0.1001503282787985
0.1050600753081451
0.06969047730086782
0.09575506057734617
0.173766837451307
0.07955206355543749
0.1499070618539577
0.08845619185588388
0.07326364972521805
0.1048038160862373
0.09164430860228312
0.06361444308542467
0.1050798587374747
0.1999386216062099
0.09814449574161738
0.1503173069158311
0.2753248665908692
0.09780388747898625
0.1511179276711212
0.2168244087978592
0.0978799387545657
0.1834309253986011
0.6113846949796563
0.1652857230041739
0.552486187845304
)
;

boundaryField
{
    fixedWalls
    {
        type            calculated;
        value           uniform 0;
    }
    inlet
    {
        type            calculated;
        value           uniform 0;
    }
    outlet
    {
        type            calculated;
        value           uniform 0;
    }
}


// ************************************************************************* //
