/*--------------------------------*- C++ -*----------------------------------*\
| =========                 |                                                 |
| \\      /  F ield         | OpenFOAM: The Open Source CFD Toolbox           |
|  \\    /   O peration     | Version:  2406                                  |
|   \\  /    A nd           | Website:  www.openfoam.com                      |
|    \\/     M anipulation  |                                                 |
\*---------------------------------------------------------------------------*/
FoamFile
{
    version     2.0;
    format      ascii;
    arch        "LSB;label=32;scalar=64";
    class       volScalarField;
    location    "0";
    object      nfrAU;
}
// * * * * * * * * * * * * * * * * * * * * * * * * * * * * * * * * * * * * * //

dimensions      [0 0 0 0 0 0 0];

internalField   nonuniform List<scalar>
27
(
0.07239163999814857
0.07047846444353605
0.1010000911863627
0.05915487406930681
0.06884047330089006
0.08676455930768071
0.08874389331174197
0.1001729671701152
0.1475363465727195
0.07740112916969734
0.0649897408182669
0.1019676819054517
0.07414091543771077
0.06942269350025605
0.0921498062627541
0.09106299974930898
0.08593532852307119
0.1519696905005201
0.1016776886842137
0.09186203061974041
0.1607070306090303
0.1057706400790391
0.1173351289972339
0.1765836104720208
0.1514558768814516
0.1335801136344314
0.552486187845304
)
;

boundaryField
{
    fixedWalls
    {
        type            calculated;
        value           uniform 0;
    }
}


// ************************************************************************* //
