/*--------------------------------*- C++ -*----------------------------------*\
| =========                 |                                                 |
| \\      /  F ield         | OpenFOAM: The Open Source CFD Toolbox           |
|  \\    /   O peration     | Version:  2412                                  |
|   \\  /    A nd           | Website:  www.openfoam.com                      |
|    \\/     M anipulation  |                                                 |
\*---------------------------------------------------------------------------*/
FoamFile
{
    version     2.0;
    format      ascii;
    arch        "LSB;label=32;scalar=64";
    class       surfaceScalarField;
    location    "0";
    object      ofPhi0;
}
// * * * * * * * * * * * * * * * * * * * * * * * * * * * * * * * * * * * * * //

dimensions      [0 3 -1 0 0 0 0];

oriented        oriented;

internalField   nonuniform List<scalar>
54
(
0.1643506217645974
0.1522325921131122
0.1570792298617695
0.2221585534139516
0.204231262310539
0.2240560131913652
0.1869630701885844
0.1570121161124046
0.2010319460091171
0.1495414382787186
0.1645041023424659
0.1675834761238962
0.2107742250934347
0.1782077410273127
0.1897837923382044
0.1437659503455032
0.1378915739572754
0.1593739561493979
0.122069364443025
0.1649053542916886
0.1765465260898841
0.1881538081859473
0.2058480890444877
0.1938172877152325
0.1544565322951626
0.1693010326597805
0.1509194314787243
0.2010989685548496
0.2139215327468489
0.2150833869014042
0.2026805171508589
0.1572586401480369
0.1715950231702184
0.1508915871496038
0.1751253250161742
0.1878809331618661
0.1019480418180852
0.1800939281581385
0.1400381377752748
0.1418143384126527
0.1539684416415425
0.1605628624595742
0.1394832512213288
0.1869233857350611
0.1887164373756429
0.2053396918671518
0.1848052519999963
0.1931321260718259
0.1389103692827879
0.1423233055792875
0.1805721197373
0.1891982891082048
0.1848734218746771
0.1060530386987694
)
;

boundaryField
{
    fixedWalls
    {
        type            calculated;
        value           uniform 0;
    }
    inlet
    {
        type            calculated;
        value           nonuniform List<scalar> 9(0.1111111111111111 0.1111111111111111 0.1111111111111111 0.1111111111111111 0.1111111111111111 0.1111111111111111 0.1111111111111111 0.1111111111111111 0.1111111111111111);
    }
    outlet
    {
        type            calculated;
        value           nonuniform List<scalar> 9(-0.04946975870101036 -0.08771078779678246 -0.05667592564820947 -0.05233176743137428 -0.1359978793746695 -0.08290796739940534 -0.05663239060422599 -0.06700498119483503 -0.1044874905930656);
    }
}


// ************************************************************************* //
