/*--------------------------------*- C++ -*----------------------------------*\
| =========                 |                                                 |
| \\      /  F ield         | OpenFOAM: The Open Source CFD Toolbox           |
|  \\    /   O peration     | Version:  2406                                  |
|   \\  /    A nd           | Website:  www.openfoam.com                      |
|    \\/     M anipulation  |                                                 |
\*---------------------------------------------------------------------------*/
FoamFile
{
    version     2.0;
    format      ascii;
    arch        "LSB;label=32;scalar=64";
    class       volScalarField;
    location    "0";
    object      T;
}
// * * * * * * * * * * * * * * * * * * * * * * * * * * * * * * * * * * * * * //

dimensions      [0 0 0 1 0 0 0];

internalField   nonuniform List<scalar>
10000
(
3.225075979751999e-70
2.289586919023944e-69
1.561717728649393e-68
1.023472472807358e-67
6.444333584139299e-67
3.898594632711884e-66
2.266033722879222e-65
1.265472982642807e-64
6.789966118312698e-64
3.50034263222326e-63
1.733731055389425e-62
8.250516179742489e-62
3.772321794994596e-61
1.65716047363575e-60
6.994370279166421e-60
2.836357012417521e-59
1.105099519328087e-58
4.136853164653553e-58
1.487877043083956e-57
5.141527943992242e-57
1.707047393557178e-56
5.445367284615347e-56
1.668925681072762e-55
4.914451325303057e-55
1.390404930575007e-54
3.779512456981847e-54
9.870939355158452e-54
2.476905326354279e-53
5.971570324130812e-53
1.383234829834242e-52
3.078445727512412e-52
6.582567295229852e-52
1.35234448626185e-51
2.669362667736909e-51
5.062395259293434e-51
9.224285576966431e-51
1.614870309447312e-50
2.716256511168165e-50
4.389672617488664e-50
6.815876360076184e-50
1.016809269003099e-49
1.457422634259718e-49
2.007057174010722e-49
2.655597181999316e-49
3.37592566121253e-49
4.123364913948691e-49
4.838813551584982e-49
5.455747044791709e-49
5.910140218128721e-49
6.151337616016163e-49
6.151337616016163e-49
5.910140218128721e-49
5.455747044791709e-49
4.838813551584982e-49
4.123364913948691e-49
3.37592566121253e-49
2.655597181999316e-49
2.007057174010722e-49
1.457422634259739e-49
1.016809269003099e-49
6.815876360076184e-50
4.389672617488664e-50
2.716256511168165e-50
1.614870309447312e-50
9.224285576966431e-51
5.062395259293506e-51
2.669362667736871e-51
1.35234448626185e-51
6.582567295229852e-52
3.078445727512455e-52
1.383234829834262e-52
5.971570324130728e-53
2.476905326354244e-53
9.870939355158452e-54
3.779512456981847e-54
1.390404930575007e-54
4.914451325303057e-55
1.668925681072762e-55
5.445367284615347e-56
1.707047393557178e-56
5.141527943992096e-57
1.487877043083956e-57
4.136853164653553e-58
1.105099519328118e-58
2.836357012417601e-59
6.994370279166421e-60
1.657160473635797e-60
3.772321794994703e-61
8.250516179742489e-62
1.733731055389474e-62
3.50034263222306e-63
6.789966118313084e-64
1.265472982642807e-64
2.266033722879093e-65
3.898594632711995e-66
6.444333584139116e-67
1.023472472807416e-67
1.561717728649393e-68
2.289586919023944e-69
3.22507597975209e-70
6.223742516660318e-69
4.418438369509301e-68
3.013798461754415e-67
1.975094287277112e-66
1.243625674897555e-65
7.523496910822918e-65
4.372985478113909e-64
2.442106187639292e-63
1.310325743720202e-62
6.754951325122526e-62
3.345749293854338e-61
1.592182282049858e-60
7.279815945247376e-60
3.197983601455762e-59
1.349771600948788e-58
5.473593751415438e-58
2.132617931101326e-57
7.983287552814484e-57
2.871300915309538e-56
9.922106104328983e-56
3.294255238617035e-55
1.050845440568451e-54
3.220688065537517e-54
9.48389428694909e-54
2.683199507894808e-53
7.293692464440711e-53
1.904891088761245e-52
4.779924902903892e-52
1.152391954510725e-51
2.669362667736871e-51
5.940775870038228e-51
1.270301977420411e-50
2.609750569959091e-50
5.151328536718004e-50
9.769396072903516e-50
1.780100025289885e-49
3.116372162051403e-49
5.241824143322339e-49
8.471177818819957e-49
1.315325894857483e-48
1.96223565539551e-48
2.81253008317743e-48
3.873213265573786e-48
5.12476394122152e-48
6.514851805875597e-48
7.957257964701241e-48
9.33792872486304e-48
1.052848523755574e-47
1.140537190005083e-47
1.187083395724408e-47
1.187083395724408e-47
1.140537190005083e-47
1.052848523755574e-47
9.33792872486304e-48
7.957257964701241e-48
6.514851805875597e-48
5.12476394122152e-48
3.873213265573786e-48
2.81253008317747e-48
1.96223565539551e-48
1.315325894857483e-48
8.471177818819957e-49
5.241824143322339e-49
3.116372162051403e-49
1.780100025289885e-49
9.769396072903516e-50
5.151328536718004e-50
2.609750569959091e-50
1.270301977420411e-50
5.940775870038313e-51
2.669362667736947e-51
1.152391954510741e-51
4.779924902903892e-52
1.904891088761245e-52
7.293692464440711e-53
2.683199507894732e-53
9.48389428694909e-54
3.220688065537517e-54
1.050845440568466e-54
3.294255238616988e-55
9.922106104328701e-56
2.87130091530962e-56
7.983287552814484e-57
2.132617931101387e-57
5.473593751415594e-58
1.349771600948788e-58
3.197983601455762e-59
7.279815945247582e-60
1.592182282049858e-60
3.345749293854433e-61
6.754951325122718e-62
1.310325743720239e-62
2.442106187639362e-63
4.372985478113909e-64
7.523496910823132e-65
1.243625674897555e-65
1.975094287277168e-66
3.013798461754415e-67
4.418438369509301e-68
6.223742516660496e-69
1.153961990768492e-67
8.192353593224851e-67
5.587970362513244e-66
3.662079094051042e-65
2.305842113059764e-64
1.394953189260875e-63
8.108078080700988e-63
4.527979283224737e-62
2.429512628022326e-61
1.252454942956968e-60
6.20344994255976e-60
2.952110937980266e-59
1.349771600948826e-58
5.929473324614881e-58
2.502650325819461e-57
1.014874751828695e-56
3.954148210236096e-56
1.480204293905548e-55
5.323761565418929e-55
1.839686214864758e-54
6.107973334497643e-54
1.94840273893443e-53
5.971570324130812e-53
1.758436102121769e-52
4.974997338772978e-52
1.352344486261869e-51
3.5319133256233e-51
8.862596166074511e-51
2.136683049488323e-50
4.949342055682688e-50
1.101496331403084e-49
2.355303412403709e-49
4.838813551585051e-49
9.551226319888588e-49
1.811371808958291e-48
3.300534627600249e-48
5.778155208814802e-48
9.71901682547824e-48
1.570665430613748e-47
2.438783551980177e-47
3.638237535045352e-47
5.214792876137933e-47
7.181436054990959e-47
9.501972139753502e-47
1.207937400903924e-46
1.475378073148884e-46
1.731372207663159e-46
1.952116713052254e-46
2.114702789841651e-46
2.201005447881906e-46
2.201005447881906e-46
2.114702789841651e-46
1.952116713052254e-46
1.731372207663159e-46
1.475378073148884e-46
1.207937400903924e-46
9.501972139753502e-47
7.181436054990959e-47
5.214792876138007e-47
3.638237535045352e-47
2.438783551980177e-47
1.570665430613748e-47
9.71901682547824e-48
5.778155208814885e-48
3.300534627600296e-48
1.811371808958317e-48
9.551226319888723e-49
4.838813551585051e-49
2.355303412403709e-49
1.101496331403099e-49
4.949342055682759e-50
2.136683049488354e-50
8.862596166074511e-51
3.5319133256233e-51
1.352344486261869e-51
4.974997338772907e-52
1.758436102121769e-52
5.971570324130812e-53
1.948402738934402e-53
6.107973334497556e-54
1.839686214864784e-54
5.323761565418929e-55
1.480204293905548e-55
3.954148210236096e-56
1.014874751828724e-56
2.502650325819461e-57
5.929473324615049e-58
1.349771600948788e-58
2.952110937980434e-59
6.203449942560113e-60
1.252454942957003e-60
2.429512628022257e-61
4.527979283224737e-62
8.108078080701219e-63
1.394953189260875e-63
2.305842113059764e-64
3.662079094051042e-65
5.587970362513244e-66
8.192353593224851e-67
1.153961990768427e-67
2.055699414243896e-66
1.459408248936803e-65
9.954563055738427e-65
6.5237277386768e-64
4.107690131110069e-63
2.485007718626369e-62
1.444395178912325e-61
8.066265990298745e-61
4.328000164890584e-60
2.231157449899094e-59
1.105099519328087e-58
5.258971070570142e-58
2.40452000293841e-57
1.056292576159124e-56
4.458289657719315e-56
1.807925607216717e-55
7.044027640981814e-55
2.636876365326793e-54
9.483894286948955e-54
3.277267279636692e-53
1.088091055545258e-52
3.47093786552824e-52
1.063791850653296e-51
3.132526109208907e-51
8.862596166074386e-51
2.40910341112108e-50
6.29184688293649e-50
1.578807091830321e-49
3.806345554183113e-49
8.816893143927316e-49
1.962235655395482e-48
4.195801840943169e-48
8.6199946473144e-48
1.701481548627942e-47
3.226827223463072e-47
5.879662549484019e-47
1.029336353640241e-46
1.731372207663135e-46
2.798026305472601e-46
4.344515642091903e-46
6.481255734161559e-46
9.289774487061498e-46
1.279320637055231e-45
1.6927072744263e-45
2.151852684357283e-45
2.628278803828359e-45
3.08431374828992e-45
3.477554040479883e-45
3.767189319192651e-45
3.920931231838223e-45
3.920931231838223e-45
3.767189319192651e-45
3.477554040479883e-45
3.08431374828992e-45
2.628278803828359e-45
2.151852684357283e-45
1.6927072744263e-45
1.279320637055249e-45
9.28977448706163e-46
6.481255734161467e-46
4.344515642091903e-46
2.798026305472601e-46
1.731372207663135e-46
1.029336353640256e-46
5.879662549484019e-47
3.226827223463072e-47
1.701481548627966e-47
8.6199946473144e-48
4.195801840943169e-48
1.962235655395537e-48
8.816893143927441e-49
3.806345554183167e-49
1.578807091830343e-49
6.29184688293649e-50
2.409103411121115e-50
8.862596166074386e-51
3.132526109208907e-51
1.063791850653281e-51
3.47093786552824e-52
1.088091055545243e-52
3.277267279636646e-53
9.483894286948955e-54
2.63687636532683e-54
7.044027640982216e-55
1.807925607216768e-55
4.458289657719315e-56
1.056292576159154e-56
2.40452000293841e-57
5.258971070570142e-58
1.105099519328055e-58
2.231157449899157e-59
4.328000164890584e-60
8.066265990299433e-61
1.444395178912284e-61
2.48500771862651e-62
4.107690131110186e-63
6.523727738677356e-64
9.95456305573786e-65
1.459408248936844e-65
2.055699414243896e-66
3.518486918904676e-65
2.497888941177973e-64
1.703799672867539e-63
1.116585944033705e-62
7.030626118332819e-62
4.253280947000685e-61
2.472192922524731e-60
1.380603174502115e-59
7.407703606699828e-59
3.818796778892932e-58
1.891462426803221e-57
9.001131581051191e-57
4.115520059967246e-56
1.807925607216768e-55
7.63070404782075e-55
3.094403080172396e-54
1.205639255402234e-53
4.51321576193756e-53
1.623241109945008e-52
5.609293836082251e-52
1.862351138977854e-51
5.940775870038313e-51
1.820761189610865e-50
5.361558242420842e-50
1.516901180289398e-49
4.12336491394875e-49
1.07689776043965e-48
2.702249201215139e-48
6.514851805875689e-48
1.509078758175316e-47
3.358516540637743e-47
7.181436054990857e-47
1.475378073148884e-46
2.912215925209624e-46
5.522961818567433e-46
1.006349256345062e-45
1.761787968776735e-45
2.963376076389211e-45
4.78903622112364e-45
7.435971110250909e-45
1.109316535321935e-44
1.59001602013507e-44
2.189655207066981e-44
2.89719808321023e-44
3.683060601593788e-44
4.49850037725772e-44
5.279039095872677e-44
5.952099959960904e-44
6.447832912134275e-44
6.710973965141677e-44
6.710973965141677e-44
6.447832912134e-44
5.952099959960904e-44
5.279039095872452e-44
4.49850037725772e-44
3.683060601593632e-44
2.89719808321023e-44
2.189655207066981e-44
1.590016020135093e-44
1.109316535321935e-44
7.435971110250909e-45
4.78903622112364e-45
2.963376076389337e-45
1.76178796877676e-45
1.006349256345076e-45
5.522961818567512e-46
2.912215925209541e-46
1.475378073148884e-46
7.181436054990959e-47
3.358516540637791e-47
1.509078758175316e-47
6.514851805875782e-48
2.702249201215139e-48
1.076897760439619e-48
4.123364913948808e-49
1.516901180289355e-49
5.361558242420842e-50
1.820761189610865e-50
5.940775870038398e-51
1.862351138977828e-51
5.609293836082251e-52
1.623241109945054e-52
4.51321576193756e-53
1.205639255402234e-53
3.09440308017244e-54
7.630704047820641e-55
1.807925607216768e-55
4.115520059967362e-56
9.001131581051446e-57
1.891462426803274e-57
3.818796778893041e-58
7.407703606700038e-59
1.380603174502194e-59
2.472192922524731e-60
4.253280947000926e-61
7.030626118333019e-62
1.116585944033769e-62
1.703799672867539e-63
2.497888941177973e-64
3.518486918904776e-65
5.786027455011364e-64
4.107690131110069e-63
2.80183837890177e-62
1.836186143920643e-61
1.156161630956304e-60
6.994370279166421e-60
4.065433936092576e-59
2.27035315357428e-58
1.218170691971617e-57
6.279876411949818e-57
3.110443148958132e-56
1.480204293905506e-55
6.767827366552531e-55
2.973069799910082e-54
1.254842326811923e-53
5.088636562083035e-53
1.982631168845814e-52
7.421823900681059e-52
2.669362667736833e-51
9.224285576966431e-51
3.062570664424099e-50
9.769396072903516e-50
2.994177461767305e-49
8.816893143927441e-49
2.494490409651858e-48
6.780727951821909e-48
1.770920327901523e-47
4.443753360146073e-47
1.071344367136691e-46
2.481626712795878e-46
5.522961818567433e-46
1.180961792335433e-45
2.426207126675442e-45
4.78903622112364e-45
9.082315623659568e-45
1.654905804895093e-44
2.89719808321023e-44
4.873167282614064e-44
7.875400903036521e-44
1.222819183081582e-43
1.824231858070637e-43
2.614725181150669e-43
3.600810643070875e-43
4.764339910429154e-43
6.056663062975388e-43
7.397624970364982e-43
8.681193322243499e-43
9.788018138781767e-43
1.060323346791019e-42
1.103595963467831e-42
1.1035959634678e-42
1.060323346790989e-42
9.788018138781767e-43
8.681193322243746e-43
7.397624970364771e-43
6.056663062975388e-43
4.764339910429154e-43
3.600810643070875e-43
2.614725181150706e-43
1.824231858070585e-43
1.222819183081547e-43
7.875400903036745e-44
4.873167282614203e-44
2.897198083210148e-44
1.654905804895093e-44
9.082315623659827e-45
4.78903622112364e-45
2.426207126675442e-45
1.180961792335467e-45
5.522961818567355e-46
2.481626712795914e-46
1.071344367136707e-46
4.44375336014601e-47
1.770920327901548e-47
6.780727951822005e-48
2.494490409651893e-48
8.81689314392719e-49
2.994177461767262e-49
9.769396072903516e-50
3.062570664424012e-50
9.224285576966037e-51
2.669362667736947e-51
7.421823900680742e-52
1.982631168845814e-52
5.088636562082818e-53
1.254842326811905e-53
2.973069799910251e-54
6.767827366552434e-55
1.480204293905527e-55
3.110443148958044e-56
6.279876411949818e-57
1.218170691971548e-57
2.270353153574151e-58
4.065433936092461e-59
6.994370279166421e-60
1.156161630956304e-60
1.836186143920539e-61
2.80183837890177e-62
4.107690131110302e-63
5.786027455011364e-64
9.141832508350153e-63
6.49008589516595e-62
4.426860635305481e-61
2.901145269771612e-60
1.826717219191403e-59
1.105099519328055e-58
6.42332177067884e-58
3.587122326355898e-57
1.924690561732397e-56
9.922106104328842e-56
4.914451325302917e-55
2.338699537504746e-54
1.069306094924647e-53
4.69740359127935e-53
1.982631168845729e-52
8.03996585016835e-52
3.132526109208818e-51
1.172636520204067e-50
4.217551092219098e-50
1.457422634259677e-49
4.838813551584845e-49
1.543549236512238e-48
4.730753365514259e-48
1.393055269656481e-47
3.941255670844074e-47
1.071344367136661e-46
2.798026305472522e-46
7.021060519111175e-46
1.692707274426252e-45
3.920931231838167e-45
8.726192934260081e-45
1.865901084679605e-44
3.833369156142392e-44
7.566602016728113e-44
1.434991604603556e-43
2.614725181150595e-43
4.577527470472098e-43
7.699527772590568e-43
1.244300974225623e-42
1.932035104680835e-42
2.882257685872782e-42
4.13122472150425e-42
5.689224264694384e-42
7.527582233690681e-42
9.569432518553731e-42
1.168813127218918e-41
1.371614910949388e-41
1.546491493674702e-41
1.675294235367131e-41
1.74366429011252e-41
1.743664290112595e-41
1.675294235367131e-41
1.546491493674702e-41
1.371614910949329e-41
1.168813127218918e-41
9.569432518553731e-42
7.527582233691002e-42
5.689224264694384e-42
4.131224721504133e-42
2.882257685872823e-42
1.932035104680917e-42
1.24430097422564e-42
7.69952777259024e-43
4.577527470472098e-43
2.614725181150595e-43
1.434991604603516e-43
7.566602016728113e-44
3.83336915614212e-44
1.865901084679578e-44
8.726192934260205e-45
3.920931231838279e-45
1.692707274426252e-45
7.021060519111075e-46
2.798026305472522e-46
1.071344367136676e-46
3.941255670844074e-47
1.393055269656422e-47
4.730753365514394e-48
1.543549236512238e-48
4.838813551584776e-49
1.457422634259656e-49
4.217551092219158e-50
1.172636520204067e-50
3.13252610920904e-51
8.039965850168692e-52
1.982631168845729e-52
4.697403591279483e-53
1.069306094924662e-53
2.338699537504812e-54
4.914451325302917e-55
9.922106104328559e-56
1.924690561732397e-56
3.587122326355898e-57
6.423321770679022e-58
1.105099519328087e-58
1.826717219191403e-59
2.901145269771776e-60
4.426860635305608e-61
6.49008589516595e-62
9.141832508350153e-63
1.387759633861464e-61
9.852159528604629e-61
6.720117097743846e-60
4.404032007455797e-59
2.773015603773155e-58
1.677576681614352e-57
9.750809436193252e-57
5.445367284615269e-56
2.92174229489195e-55
1.506207680123358e-54
7.460295477524e-54
3.550221261344664e-53
1.623241109944962e-52
7.130810023022517e-52
3.009698003596816e-51
1.220492724439819e-50
4.755275577852279e-50
1.78010002528986e-49
6.4023784664444e-49
2.212414523515177e-48
7.345474899630979e-48
2.343157481120864e-47
7.181436054990755e-47
2.114702789841621e-46
5.982953113316576e-46
1.626335272845092e-45
4.247494096693124e-45
1.065819611814323e-44
2.569584189216844e-44
5.952099959960734e-44
1.324664207137096e-43
2.832497974264538e-43
5.819177907410762e-43
1.148634569132523e-42
2.178363497668512e-42
3.969237083186143e-42
6.948834208689801e-42
1.168813127218935e-41
1.888888975845554e-41
2.932891547761869e-41
4.375360046454513e-41
6.271332253875346e-41
8.636425766187275e-41
1.142711240328191e-40
1.452670693329883e-40
1.77429599153157e-40
2.082155634419484e-40
2.347623922306236e-40
2.543150634798703e-40
2.646938581092718e-40
2.646938581092718e-40
2.543150634798703e-40
2.347623922306236e-40
2.082155634419484e-40
1.77429599153157e-40
1.452670693329883e-40
1.142711240328159e-40
8.636425766187275e-41
6.271332253875346e-41
4.375360046454513e-41
2.932891547761869e-41
1.888888975845554e-41
1.168813127218935e-41
6.948834208689603e-42
3.9692370831862e-42
2.178363497668481e-42
1.148634569132506e-42
5.819177907410596e-43
2.832497974264578e-43
1.324664207137114e-43
5.952099959960734e-44
2.569584189216881e-44
1.065819611814338e-44
4.247494096693124e-45
1.626335272845092e-45
5.982953113316576e-46
2.114702789841591e-46
7.181436054990857e-47
2.343157481120897e-47
7.345474899630874e-48
2.212414523515208e-48
6.4023784664444e-49
1.780100025289911e-49
4.755275577852346e-50
1.220492724439784e-50
3.009698003596816e-51
7.130810023022719e-52
1.623241109945008e-52
3.550221261344664e-53
7.460295477524e-54
1.506207680123401e-54
2.921742294892074e-55
5.445367284615347e-56
9.750809436192975e-57
1.677576681614447e-57
2.773015603773234e-58
4.404032007455922e-59
6.720117097744228e-60
9.852159528604909e-61
1.387759633861464e-61
2.024060373212696e-60
1.436946658905963e-59
9.801353482983831e-59
6.42332177067884e-58
4.044469129196494e-57
2.446761241233959e-56
1.422164653372343e-55
7.942118987645016e-55
4.261388395752022e-54
2.196817953757149e-53
1.088091055545243e-52
5.178030831773186e-52
2.367512303025618e-51
1.040035294609845e-50
4.389672617488539e-50
1.78010002528986e-49
6.93561379505984e-49
2.596292494485254e-48
9.337928724862775e-48
3.226827223463026e-47
1.071344367136661e-46
3.417517046908857e-46
1.047419148604415e-45
3.084313748289876e-45
8.726192934260205e-45
2.37202516848269e-44
6.195009767397166e-44
1.554507847489123e-43
3.747762513134759e-43
8.681193322243499e-43
1.932035104680835e-42
4.131224721504133e-42
8.487325268491247e-42
1.675294235367155e-41
3.177163484583575e-41
5.789169317174003e-41
1.013493952313451e-40
1.704724850593822e-40
2.754962193826752e-40
4.277649685080675e-40
6.381503448060791e-40
9.146796601223629e-40
1.259630755427892e-39
1.666655005043773e-39
2.118733759040802e-39
2.587827257099507e-39
3.036843418455179e-39
3.424031393047779e-39
3.709208927401726e-39
3.860584615370332e-39
3.860584615370332e-39
3.709208927401726e-39
3.424031393047779e-39
3.036843418455179e-39
2.587827257099507e-39
2.118733759040802e-39
1.666655005043773e-39
1.259630755427892e-39
9.14679660122376e-40
6.381503448060791e-40
4.277649685080675e-40
2.754962193826791e-40
1.704724850593822e-40
1.013493952313436e-40
5.789169317174003e-41
3.177163484583621e-41
1.675294235367155e-41
8.487325268491126e-42
4.131224721504133e-42
1.932035104680835e-42
8.681193322243746e-43
3.747762513134973e-43
1.554507847489123e-43
6.195009767397166e-44
2.372025168482757e-44
8.726192934260329e-45
3.084313748289876e-45
1.04741914860443e-45
3.417517046909003e-46
1.07134436713663e-46
3.226827223463072e-47
9.337928724862775e-48
2.596292494485365e-48
6.93561379505984e-49
1.780100025289809e-49
4.389672617488539e-50
1.040035294609874e-50
2.367512303025651e-51
5.178030831773333e-52
1.088091055545243e-52
2.196817953757212e-53
4.261388395751901e-54
7.942118987645242e-55
1.422164653372383e-55
2.446761241234098e-56
4.044469129196494e-57
6.42332177067884e-58
9.801353482983553e-59
1.436946658906004e-59
2.024060373212696e-60
2.836357012417521e-59
2.01362261047021e-58
1.373483619884235e-57
9.001131581051191e-57
5.667596939262438e-56
3.428696345292299e-55
1.992908285142884e-54
1.112945304507184e-53
5.971570324130642e-53
3.078445727512412e-52
1.524764150510949e-51
7.256080033276096e-51
3.317643194611279e-50
1.457422634259718e-49
6.151337616016076e-49
2.494490409651858e-48
9.719016825477964e-48
3.6382375350453e-47
1.308542964960101e-46
4.521818688936578e-46
1.501296675068498e-45
4.789036221123503e-45
1.467769779203308e-44
4.322111654491871e-44
1.222819183081547e-43
3.323967164861752e-43
8.681193322243621e-43
2.178363497668512e-42
5.251815916998958e-42
1.216513295826973e-41
2.707400129918187e-41
5.789169317174086e-41
1.189346170724303e-40
2.347623922306269e-40
4.452223880452672e-40
8.112480836120468e-40
1.420229710897526e-39
2.38886564265345e-39
3.860584615370332e-39
5.994357599959396e-39
8.942530714113128e-39
1.281759231314744e-38
1.765146224637462e-38
2.335517592952703e-38
2.9690247556018e-38
3.626375025537873e-38
4.255590514761883e-38
4.798164907005099e-38
5.197789992330436e-38
5.409915826006923e-38
5.409915826006923e-38
5.197789992330436e-38
4.798164907005099e-38
4.255590514761883e-38
3.626375025537873e-38
2.9690247556018e-38
2.335517592952703e-38
1.765146224637462e-38
1.281759231314762e-38
8.942530714113128e-39
5.994357599959396e-39
3.860584615370387e-39
2.388865642653518e-39
1.420229710897505e-39
8.112480836120352e-40
4.452223880452672e-40
2.347623922306269e-40
1.189346170724303e-40
5.789169317174086e-41
2.707400129918225e-41
1.216513295826991e-41
5.251815916998958e-42
2.178363497668481e-42
8.681193322243746e-43
3.323967164861799e-43
1.222819183081547e-43
4.322111654491871e-44
1.467769779203308e-44
4.789036221123503e-45
1.501296675068455e-45
4.521818688936578e-46
1.308542964960139e-46
3.6382375350453e-47
9.719016825478101e-48
2.494490409651928e-48
6.151337616016076e-49
1.457422634259739e-49
3.317643194611326e-50
7.256080033276199e-51
1.524764150510971e-51
3.078445727512412e-52
5.971570324130642e-53
1.1129453045072e-53
1.992908285142827e-54
3.428696345292348e-55
5.667596939262438e-56
9.001131581051446e-57
1.373483619884235e-57
2.013622610470267e-58
2.836357012417521e-59
3.818796778892932e-58
2.7110887328727e-57
1.849222365348707e-56
1.211888776258531e-55
7.630704047820641e-55
4.616306939458296e-54
2.683199507894808e-53
1.498440402716983e-52
8.039965850168464e-52
4.144738683019707e-51
2.05290250876412e-50
9.769396072903516e-50
4.466787886585214e-49
1.962235655395482e-48
8.281999822689179e-48
3.358516540637647e-47
1.308542964960083e-46
4.898427708095923e-46
1.76178796877671e-45
6.088058226961654e-45
2.021306514594091e-44
6.447832912134092e-44
1.976166780288522e-43
5.819177907410596e-43
1.646371714518486e-42
4.475302314464565e-42
1.168813127218935e-41
2.932891547761869e-41
7.070907371452575e-41
1.637881633111079e-40
3.645172610514832e-40
7.794385912670105e-40
1.601304527556432e-39
3.160779349463459e-39
5.994357599959311e-39
1.092243167914968e-38
1.912160077705036e-38
3.216306121350229e-38
5.197789992330436e-38
8.070646041397431e-38
1.203998909047734e-37
1.725727051436675e-37
2.37654663619909e-37
3.144479704765272e-37
3.997417152885733e-37
4.882456336051421e-37
5.729615587499166e-37
6.460123535665455e-37
6.998168281769004e-37
7.283768947276657e-37
7.283768947276657e-37
6.998168281769004e-37
6.460123535665455e-37
5.729615587499166e-37
4.882456336051421e-37
3.997417152885733e-37
3.144479704765272e-37
2.37654663619909e-37
1.7257270514367e-37
1.203998909047751e-37
8.070646041397431e-38
5.197789992330436e-38
3.216306121350229e-38
1.912160077705036e-38
1.092243167914968e-38
5.994357599959396e-39
3.160779349463459e-39
1.601304527556432e-39
7.794385912670105e-40
3.645172610514832e-40
1.637881633111103e-40
7.070907371452575e-41
2.932891547761828e-41
1.168813127218951e-41
4.475302314464628e-42
1.646371714518486e-42
5.819177907410596e-43
1.976166780288578e-43
6.447832912134092e-44
2.021306514594062e-44
6.088058226961567e-45
1.761787968776735e-45
4.898427708096132e-46
1.30854296496012e-46
3.358516540637695e-47
8.281999822689062e-48
1.962235655395537e-48
4.466787886585214e-49
9.769396072903516e-50
2.052902508764149e-50
4.144738683019707e-51
8.039965850168464e-52
1.498440402716983e-52
2.683199507894732e-53
4.616306939458362e-54
7.630704047820859e-55
1.2118887762586e-55
1.849222365348654e-56
2.711088732872855e-57
3.818796778892932e-58
4.939925749694343e-57
3.50701485746685e-56
2.392120269396738e-55
1.567677181643723e-54
9.870939355158312e-54
5.971570324130642e-53
3.47093786552824e-52
1.938355130777573e-51
1.040035294609845e-50
5.361558242420766e-50
2.655597181999278e-49
1.263751228822641e-48
5.778155208814721e-48
2.538312196824094e-47
1.071344367136676e-46
4.344515642091841e-46
1.692707274426276e-45
6.336516596532336e-45
2.279016731281729e-44
7.875400903036521e-44
2.614725181150632e-43
8.340798863251291e-43
2.556333245485733e-42
7.527582233690788e-42
2.129716373248863e-41
5.789169317174086e-41
1.511955308971278e-40
3.793934926814801e-40
9.146796601223891e-40
2.118733759040832e-39
4.715328697324056e-39
1.008267522531432e-38
2.071418283502206e-38
4.08872642393999e-38
7.754191483711107e-38
1.41290580842979e-37
2.473535344326706e-37
4.160554841664958e-37
6.723766178534472e-37
1.044004028099283e-36
1.557470993555468e-36
2.232368987387569e-36
3.07425731277399e-36
4.067641501327648e-36
5.170985802374829e-36
6.315856321427713e-36
7.411726052817741e-36
8.356697789320874e-36
9.052702643639201e-36
9.422150447059657e-36
9.422150447059657e-36
9.052702643639201e-36
8.356697789320874e-36
7.411726052817741e-36
6.315856321427713e-36
5.170985802374829e-36
4.067641501327648e-36
3.07425731277399e-36
2.232368987387601e-36
1.55747099355549e-36
1.044004028099283e-36
6.723766178534472e-37
4.160554841664958e-37
2.473535344326706e-37
1.41290580842981e-37
7.754191483711217e-38
4.088726423940049e-38
2.071418283502177e-38
1.008267522531432e-38
4.71532869732419e-39
2.118733759040862e-39
9.146796601223891e-40
3.793934926814747e-40
1.511955308971278e-40
5.789169317174168e-41
2.129716373248893e-41
7.527582233690788e-42
2.556333245485733e-42
8.340798863251646e-43
2.614725181150595e-43
7.875400903036634e-44
2.279016731281761e-44
6.336516596532697e-45
1.692707274426324e-45
4.344515642091779e-46
1.071344367136707e-46
2.53831219682413e-47
5.778155208814885e-48
1.263751228822659e-48
2.655597181999278e-49
5.361558242420917e-50
1.040035294609874e-50
1.938355130777573e-51
3.470937865528093e-52
5.971570324130982e-53
9.870939355158592e-54
1.567677181643723e-54
2.392120269396738e-55
3.50701485746685e-56
4.939925749694343e-57
6.139634469097079e-56
4.358727315662981e-55
2.97306979991004e-54
1.948402738934375e-53
1.226819239358946e-52
7.421823900680848e-52
4.313888677498846e-51
2.409103411121046e-50
1.292617919259094e-49
6.663664488332619e-49
3.300534627600203e-48
1.570665430613681e-47
7.181436054990755e-47
3.1547658500566e-46
1.331530702693744e-45
5.399623261416289e-45
2.103797598334806e-44
7.875400903036521e-44
2.832497974264538e-43
9.78801813878149e-43
3.24973646626208e-42
1.036644249233759e-41
3.177163484583621e-41
9.355728343445455e-41
2.646938581092718e-40
7.195125046031504e-40
1.879148270855871e-39
4.715328697324056e-39
1.136818457203916e-38
2.633288732862389e-38
5.860491851523297e-38
1.25313503665277e-37
2.574482236720894e-37
5.081713159086171e-37
9.637371840319288e-37
1.756043641659975e-36
3.07425731277399e-36
5.170985802374829e-36
8.356697789320874e-36
1.297550498039621e-35
1.935717879412221e-35
2.774521374851901e-35
3.820870418052153e-35
5.055507559203015e-35
6.426809689080239e-35
7.849723080413129e-35
9.211735369140096e-35
1.038620262628788e-34
1.125123898730933e-34
1.171041076100508e-34
1.171041076100508e-34
1.125123898730933e-34
1.038620262628788e-34
9.211735369140096e-35
7.849723080413129e-35
6.426809689080329e-35
5.055507559203015e-35
3.820870418052153e-35
2.774521374851941e-35
1.935717879412249e-35
1.297550498039621e-35
8.356697789320874e-36
5.170985802374829e-36
3.07425731277399e-36
1.75604364166e-36
9.637371840319425e-37
5.081713159086242e-37
2.574482236720894e-37
1.25313503665277e-37
5.860491851523381e-38
2.633288732862389e-38
1.136818457203932e-38
4.715328697324123e-39
1.879148270855871e-39
7.195125046031402e-40
2.646938581092718e-40
9.355728343445587e-41
3.177163484583711e-41
1.036644249233789e-41
3.249736466262034e-42
9.78801813878149e-43
2.832497974264619e-43
7.875400903036745e-44
2.103797598334836e-44
5.399623261416289e-45
1.331530702693744e-45
3.154765850056689e-46
7.181436054990959e-47
1.570665430613681e-47
3.300534627600203e-48
6.663664488332808e-49
1.292617919259112e-49
2.409103411121115e-50
4.313888677498846e-51
7.421823900681375e-52
1.226819239358981e-52
1.948402738934375e-53
2.973069799909955e-54
4.358727315663043e-55
6.139634469097253e-56
7.331499862443015e-55
5.204871540163424e-54
3.550221261344816e-53
2.326639229807721e-52
1.464977293008995e-51
8.862596166074386e-51
5.151328536718004e-50
2.876774084213917e-49
1.543549236512304e-48
7.957257964701241e-48
3.941255670844185e-47
1.875573121893313e-46
8.575542683252131e-46
3.767189319192704e-45
1.59001602013507e-44
6.447832912134183e-44
2.512200340335228e-43
9.404224457972843e-43
3.38236072737154e-42
1.168813127218951e-41
3.880596243196276e-41
1.237884308734321e-40
3.793934926814855e-40
1.117192259706496e-39
3.160779349463504e-39
8.591889069415245e-39
2.243940638263429e-38
5.630698679181953e-38
1.357504979256367e-37
3.144479704765317e-37