/*--------------------------------*- C++ -*----------------------------------*\
| =========                 |                                                 |
| \\      /  F ield         | OpenFOAM: The Open Source CFD Toolbox           |
|  \\    /   O peration     | Version:  2406                                  |
|   \\  /    A nd           | Website:  www.openfoam.com                      |
|    \\/     M anipulation  |                                                 |
\*---------------------------------------------------------------------------*/
FoamFile
{
    version     2.0;
    format      ascii;
    arch        "LSB;label=32;scalar=64";
    class       volVectorField;
    location    "0.1";
    object      U;
}
// * * * * * * * * * * * * * * * * * * * * * * * * * * * * * * * * * * * * * //

dimensions      [0 1 -1 0 0 0 0];

internalField   nonuniform List<vector> 
10000
(
(-7.706877187203178e-06 7.706877187203178e-06 0)
(-6.931626764686557e-05 2.309021603828891e-05 0)
(-0.0001922919044486992 3.83824283555878e-05 0)
(-0.0003761484589364715 5.352316276343069e-05 0)
(-0.0006201603332856894 6.845266570025348e-05 0)
(-0.0009233645241067174 8.311201723860552e-05 0)
(-0.001284564422979204 9.744336361518577e-05 0)
(-0.001702334538918837 0.0001113901455532151 0)
(-0.002175026124139012 0.0001248973214760627 0)
(-0.00270077368090511 0.0001379115847312029 0)
(-0.003277502323801785 0.0001503815739672187 0)
(-0.003902935968357781 0.0001622580758335921 0)
(-0.004574606313711486 0.0001734942192033138 0)
(-0.00528986258386678 0.0001840456601518094 0)
(-0.006045881989094869 0.0001938707569621498 0)
(-0.006839680866195731 0.0002029307344658845 0)
(-0.007668126453653656 0.0002111898370709161 0)
(-0.008527949255215736 0.0002186154698724877 0)
(-0.009415755943099877 0.0002251783272903804 0)
(-0.01032804274990931 0.0002308525087246502 0)
(-0.01126120929640173 0.000235615620773463 0)
(-0.01221157280054139 0.000239448865609621 0)
(-0.01317538261175722 0.0002423371151669987 0)
(-0.0141488350130472 0.0002442689708441089 0)
(-0.01512808823251151 0.0002452368084891752 0)
(-0.0161092776050712 0.0002452368084891761 0)
(-0.01708853082453547 0.0002442689708441084 0)
(-0.01806198322582545 0.0002423371151669983 0)
(-0.0190257930370413 0.0002394488656096209 0)
(-0.01997615654118096 0.0002356156207734631 0)
(-0.02090932308767338 0.0002308525087246504 0)
(-0.0218216098944828 0.0002251783272903805 0)
(-0.02270941658236694 0.0002186154698724877 0)
(-0.02356923938392905 0.0002111898370709164 0)
(-0.02439768497138696 0.0002029307344658846 0)
(-0.02519148384848779 0.0001938707569621495 0)
(-0.02594750325371599 0.0001840456601518107 0)
(-0.02666275952387111 0.0001734942192033125 0)
(-0.02733442986922496 0.0001622580758335927 0)
(-0.02795986351378086 0.0001503815739672181 0)
(-0.02853659215667758 0.0001379115847312028 0)
(-0.02906233971344366 0.0001248973214760628 0)
(-0.02953503129866379 0.0001113901455532146 0)
(-0.02995280141460348 9.744336361518586e-05 0)
(-0.03031400131347602 8.311201723860596e-05 0)
(-0.030617205504297 6.845266570025355e-05 0)
(-0.03086121737864622 5.352316276343085e-05 0)
(-0.03104507393313399 3.838242835558803e-05 0)
(-0.03116804956993581 2.309021603828933e-05 0)
(-0.03122965896039548 7.706877187203266e-06 0)
(-0.03122965896039553 -7.706877187203019e-06 0)
(-0.03116804956993583 -2.309021603828874e-05 0)
(-0.03104507393313399 -3.838242835558777e-05 0)
(-0.03086121737864622 -5.352316276343058e-05 0)
(-0.030617205504297 -6.845266570025339e-05 0)
(-0.03031400131347592 -8.311201723860548e-05 0)
(-0.02995280141460348 -9.744336361518583e-05 0)
(-0.02953503129866386 -0.0001113901455532148 0)
(-0.02906233971344369 -0.0001248973214760626 0)
(-0.02853659215667759 -0.0001379115847312027 0)
(-0.02795986351378091 -0.0001503815739672187 0)
(-0.02733442986922491 -0.000162258075833592 0)
(-0.0266627595238712 -0.0001734942192033139 0)
(-0.02594750325371591 -0.0001840456601518094 0)
(-0.02519148384848777 -0.000193870756962149 0)
(-0.024397684971387 -0.0002029307344658852 0)
(-0.02356923938392903 -0.0002111898370709162 0)
(-0.02270941658236695 -0.0002186154698724877 0)
(-0.02182160989448281 -0.0002251783272903805 0)
(-0.02090932308767347 -0.0002308525087246519 0)
(-0.01997615654118089 -0.0002356156207734613 0)
(-0.0190257930370413 -0.000239448865609621 0)
(-0.01806198322582545 -0.0002423371151669989 0)
(-0.01708853082453556 -0.0002442689708441107 0)
(-0.0161092776050711 -0.0002452368084891734 0)
(-0.01512808823251151 -0.0002452368084891751 0)
(-0.01414883501304718 -0.0002442689708441082 0)
(-0.0131753826117573 -0.0002423371151670014 0)
(-0.01221157280054132 -0.0002394488656096184 0)
(-0.01126120929640177 -0.0002356156207734641 0)
(-0.0103280427499093 -0.0002308525087246504 0)
(-0.009415755943099883 -0.0002251783272903806 0)
(-0.008527949255215755 -0.0002186154698724886 0)
(-0.007668126453653663 -0.0002111898370709155 0)
(-0.006839680866195752 -0.0002029307344658853 0)
(-0.006045881989094852 -0.0001938707569621484 0)
(-0.005289862583866808 -0.0001840456601518109 0)
(-0.004574606313711481 -0.0001734942192033127 0)
(-0.0039029359683578 -0.0001622580758335933 0)
(-0.003277502323801783 -0.0001503815739672178 0)
(-0.002700773680905106 -0.0001379115847312035 0)
(-0.002175026124139017 -0.000124897321476062 0)
(-0.001702334538918844 -0.000111390145553216 0)
(-0.001284564422979195 -9.744336361518518e-05 0)
(-0.0009233645241067259 -8.311201723860638e-05 0)
(-0.000620160333285685 -6.845266570025287e-05 0)
(-0.0003761484589364728 -5.352316276343048e-05 0)
(-0.0001922919044487005 -3.838242835558814e-05 0)
(-6.931626764686513e-05 -2.309021603828885e-05 0)
(-7.706877187203649e-06 -7.706877187203408e-06 0)
(-2.309021603828889e-05 6.931626764686552e-05 0)
(-0.0002076752432997849 0.0002076752432997849 0)
(-0.0005761168250490533 0.0003452146196451939 0)
(-0.001126960890687877 0.0004813915916004208 0)
(-0.001858033510345895 0.0006156687308704994 0)
(-0.002766449474388627 0.0007475161069321201 0)
(-0.003848623680021775 0.0008764133784273046 0)
(-0.005100285280054065 0.001001851846713022 0)
(-0.006516494537979976 0.001123336463462336 0)
(-0.008091662322862925 0.001240387784393977 0)
(-0.009819572167081696 0.00135254386141989 0)
(-0.01169340479988807 0.001459362065743292 0)
(-0.01370576505995306 0.001560420834712313 0)
(-0.01584871108069015 0.001655321335535194 0)
(-0.0181137856331744 0.0017436890392911 0)
(-0.02049204950296127 0.001825175199024671 0)
(-0.02297411676908214 0.001899458226090923 0)
(-0.02555019184598629 0.001966244959318714 0)
(-0.02821010814224194 0.002025271821983948 0)
(-0.03094336818342792 0.002076305862026496 0)
(-0.03373918504086942 0.002119145671405544 0)
(-0.03658652490271733 0.002153622180965118 0)
(-0.03947415061936282 0.002179599327672811 0)
(-0.04239066605133296 0.002196974591598393 0)
(-0.0453245610446469 0.002205679400513151 0)
(-0.04826425685613517 0.002205679400513149 0)
(-0.05119815184944916 0.002196974591598393 0)
(-0.0541146672814193 0.002179599327672812 0)
(-0.05700229299806468 0.00215362218096512 0)
(-0.05984963285991263 0.002119145671405545 0)
(-0.06264544971735414 0.002076305862026497 0)
(-0.06537870975854017 0.002025271821983951 0)
(-0.06803862605479576 0.001966244959318712 0)
(-0.0706147011316999 0.00189945822609092 0)
(-0.07309676839782087 0.001825175199024674 0)
(-0.0754750322676077 0.001743689039291101 0)
(-0.07774010682009197 0.001655321335535194 0)
(-0.07988305284082904 0.001560420834712313 0)
(-0.08189541310089397 0.001459362065743289 0)
(-0.08376924573370048 0.001352543861419891 0)
(-0.08549715557791919 0.001240387784393976 0)
(-0.08707232336280205 0.001123336463462336 0)
(-0.08848853262072814 0.001001851846713027 0)
(-0.08974019422076028 0.0008764133784273045 0)
(-0.09082236842639343 0.0007475161069321228 0)
(-0.09173078439043619 0.0006156687308705 0)
(-0.09246185701009423 0.0004813915916004213 0)
(-0.09301270107573303 0.000345214619645195 0)
(-0.09338114265748231 0.0002076752432997859 0)
(-0.09356572768474379 6.931626764686542e-05 0)
(-0.09356572768474374 -6.931626764686383e-05 0)
(-0.09338114265748231 -0.0002076752432997834 0)
(-0.09301270107573303 -0.0003452146196451934 0)
(-0.09246185701009417 -0.0004813915916004202 0)
(-0.09173078439043625 -0.0006156687308705001 0)
(-0.09082236842639353 -0.0007475161069321214 0)
(-0.08974019422076034 -0.0008764133784273021 0)
(-0.08848853262072802 -0.00100185184671302 0)
(-0.08707232336280214 -0.001123336463462335 0)
(-0.08549715557791919 -0.001240387784393975 0)
(-0.08376924573370041 -0.001352543861419889 0)
(-0.08189541310089404 -0.001459362065743292 0)
(-0.07988305284082899 -0.001560420834712312 0)
(-0.07774010682009203 -0.001655321335535194 0)
(-0.07547503226760775 -0.001743689039291101 0)
(-0.07309676839782078 -0.001825175199024669 0)
(-0.07061470113169999 -0.001899458226090922 0)
(-0.06803862605479573 -0.00196624495931871 0)
(-0.0653787097585402 -0.00202527182198395 0)
(-0.06264544971735418 -0.002076305862026493 0)
(-0.05984963285991286 -0.002119145671405552 0)
(-0.05700229299806474 -0.002153622180965117 0)
(-0.05411466728141922 -0.002179599327672811 0)
(-0.05119815184944917 -0.002196974591598391 0)
(-0.0482642568561352 -0.002205679400513152 0)
(-0.04532456104464685 -0.002205679400513152 0)
(-0.04239066605133297 -0.002196974591598394 0)
(-0.03947415061936282 -0.002179599327672809 0)
(-0.03658652490271742 -0.002153622180965124 0)
(-0.03373918504086938 -0.002119145671405541 0)
(-0.03094336818342788 -0.002076305862026495 0)
(-0.02821010814224201 -0.00202527182198395 0)
(-0.02555019184598628 -0.001966244959318712 0)
(-0.0229741167690822 -0.001899458226090925 0)
(-0.02049204950296131 -0.001825175199024672 0)
(-0.01811378563317444 -0.001743689039291105 0)
(-0.01584871108069013 -0.00165532133553519 0)
(-0.01370576505995311 -0.001560420834712317 0)
(-0.01169340479988805 -0.001459362065743289 0)
(-0.009819572167081753 -0.001352543861419895 0)
(-0.008091662322862936 -0.001240387784393978 0)
(-0.006516494537980019 -0.001123336463462341 0)
(-0.005100285280054068 -0.001001851846713021 0)
(-0.003848623680021772 -0.000876413378427305 0)
(-0.002766449474388644 -0.0007475161069321225 0)
(-0.001858033510345889 -0.0006156687308704987 0)
(-0.001126960890687886 -0.0004813915916004236 0)
(-0.000576116825049061 -0.0003452146196451954 0)
(-0.0002076752432997875 -0.0002076752432997862 0)
(-2.309021603829032e-05 -6.931626764686767e-05 0)
(-3.83824283555878e-05 0.0001922919044486992 0)
(-0.0003452146196451939 0.0005761168250490534 0)
(-0.0009576680757436799 0.0009576680757436799 0)
(-0.001873325722663195 0.001335439848060273 0)
(-0.003088573877995533 0.001707941249401005 0)
(-0.004598616512465671 0.002073702186914485 0)
(-0.00639749417766821 0.002431279169280627 0)
(-0.008478107525287633 0.002779261003511416 0)
(-0.0108322453249827 0.003116274364284917 0)
(-0.01345061687036128 0.003440989213832922 0)
(-0.01632288864515392 0.003752124050992364 0)
(-0.01943772510488169 0.004048450968704962 0)
(-0.02278283341307145 0.004328800500005397 0)
(-0.02634501195546541 0.004592066233373144 0)
(-0.03011020244076129 0.004837209179233273 0)
(-0.03406354538226552 0.005063261870373629 0)
(-0.03818943874149865 0.005269332180095937 0)
(-0.04247159950231304 0.005454606843032288 0)
(-0.04689312793251908 0.005618354664732023 0)
(-0.05143657427940681 0.005759929407352146 0)
(-0.05608400763594825 0.005878772340062888 0)
(-0.0608170867058956 0.005974414444103013 0)
(-0.06561713218849784 0.006046478263782594 0)
(-0.07046520049716726 0.006094679396128181 0)
(-0.07534215852116134 0.006118827613291412 0)
(-0.0802287591352296 0.006118827613291412 0)
(-0.08510571715922366 0.006094679396128181 0)
(-0.08995378546789316 0.006046478263782593 0)
(-0.09475383095049528 0.005974414444103015 0)
(-0.09948691002044265 0.005878772340062889 0)
(-0.1041343433769841 0.005759929407352142 0)
(-0.1086777897238719 0.005618354664732024 0)
(-0.1130993181540779 0.005454606843032296 0)
(-0.1173814789148923 0.005269332180095941 0)
(-0.1215073722741253 0.005063261870373627 0)
(-0.1254607152156296 0.00483720917923327 0)
(-0.1292259057009254 0.004592066233373142 0)
(-0.1327880842433196 0.004328800500005402 0)
(-0.1361331925515093 0.004048450968704965 0)
(-0.139248029011237 0.003752124050992359 0)
(-0.1421203007860297 0.003440989213832921 0)
(-0.1447386723314083 0.003116274364284927 0)
(-0.1470928101311032 0.002779261003511412 0)
(-0.1491734234787228 0.002431279169280637 0)
(-0.1509723011439252 0.002073702186914488 0)
(-0.1524823437783954 0.001707941249401004 0)
(-0.1536975919337278 0.001335439848060276 0)
(-0.1546132495806473 0.0009576680757436861 0)
(-0.1552257030367458 0.0005761168250490534 0)
(-0.1555325352280353 0.0001922919044487068 0)
(-0.1555325352280354 -0.0001922919044486947 0)
(-0.1552257030367458 -0.0005761168250490493 0)
(-0.1546132495806473 -0.0009576680757436767 0)
(-0.1536975919337278 -0.001335439848060274 0)
(-0.1524823437783954 -0.001707941249401001 0)
(-0.1509723011439253 -0.002073702186914484 0)
(-0.1491734234787228 -0.002431279169280624 0)
(-0.1470928101311033 -0.00277926100351141 0)
(-0.1447386723314083 -0.003116274364284916 0)
(-0.1421203007860297 -0.003440989213832917 0)
(-0.139248029011237 -0.003752124050992361 0)
(-0.1361331925515093 -0.004048450968704961 0)
(-0.1327880842433196 -0.004328800500005402 0)
(-0.1292259057009256 -0.004592066233373136 0)
(-0.1254607152156297 -0.004837209179233272 0)
(-0.1215073722741254 -0.005063261870373628 0)
(-0.1173814789148924 -0.005269332180095927 0)
(-0.113099318154078 -0.005454606843032301 0)
(-0.1086777897238719 -0.005618354664732018 0)
(-0.1041343433769842 -0.00575992940735214 0)
(-0.0994869100204427 -0.005878772340062879 0)
(-0.09475383095049536 -0.005974414444103007 0)
(-0.0899537854678932 -0.0060464782637826 0)
(-0.08510571715922367 -0.006094679396128171 0)
(-0.08022875913522971 -0.006118827613291418 0)
(-0.07534215852116134 -0.006118827613291411 0)
(-0.07046520049716724 -0.006094679396128179 0)
(-0.06561713218849784 -0.006046478263782594 0)
(-0.06081708670589558 -0.005974414444103011 0)
(-0.05608400763594822 -0.005878772340062887 0)
(-0.05143657427940682 -0.005759929407352147 0)
(-0.04689312793251902 -0.005618354664732013 0)
(-0.04247159950231309 -0.005454606843032294 0)
(-0.03818943874149867 -0.005269332180095939 0)
(-0.03406354538226566 -0.005063261870373639 0)
(-0.03011020244076128 -0.004837209179233266 0)
(-0.02634501195546545 -0.00459206623337315 0)
(-0.02278283341307143 -0.004328800500005398 0)
(-0.01943772510488176 -0.004048450968704966 0)
(-0.01632288864515402 -0.003752124050992376 0)
(-0.01345061687036129 -0.003440989213832919 0)
(-0.01083224532498267 -0.003116274364284917 0)
(-0.00847810752528764 -0.002779261003511416 0)
(-0.006397494177668257 -0.002431279169280634 0)
(-0.004598616512465696 -0.00207370218691449 0)
(-0.003088573877995522 -0.001707941249401002 0)
(-0.001873325722663207 -0.001335439848060277 0)
(-0.0009576680757436831 -0.0009576680757436815 0)
(-0.0003452146196451983 -0.0005761168250490576 0)
(-3.838242835558792e-05 -0.0001922919044486991 0)
(-5.352316276343071e-05 0.0003761484589364715 0)
(-0.0004813915916004208 0.001126960890687877 0)
(-0.001335439848060273 0.001873325722663194 0)
(-0.002612297393852272 0.002612297393852273 0)
(-0.004306925055583906 0.003340959520672975 0)
(-0.006412634912076053 0.004056436406604799 0)
(-0.008921116688532463 0.004755904391249265 0)
(-0.01182247055339778 0.005436602994027512 0)
(-0.01510524618846986 0.006095845808535981 0)
(-0.01875648797807465 0.006731031104565206 0)
(-0.0227617861389622 0.007339652095940306 0)
(-0.02710533358913824 0.00791930683366082 0)
(-0.03176998833119499 0.008467707685296023 0)
(-0.03673734110394351 0.008982690363225014 0)
(-0.04198778803535745 0.009462222466091227 0)
(-0.04750060801009955 0.009904411499762025 0)
(-0.05325404444629738 0.01030751234613846 0)
(-0.05922539115883231 0.01066993415033915 0)
(-0.06539108197027885 0.01099024659907768 0)
(-0.07172678371584035 0.01126718556545572 0)
(-0.07820749227523385 0.01149965809789435 0)
(-0.08480763125252973 0.01168674673351465 0)
(-0.09150115291450094 0.01182771311894447 0)
(-0.09826164098912715 0.01192200092426194 0)
(-0.1050624149185509 0.01196923803857548 0)
(-0.1118766351550508 0.01196923803857549 0)
(-0.1186774090844746 0.01192200092426194 0)
(-0.1254378971591006 0.01182771311894446 0)
(-0.1321314188210719 0.01168674673351464 0)
(-0.1387315577983677 0.01149965809789435 0)
(-0.1452122663577614 0.01126718556545573 0)
(-0.1515479681033227 0.01099024659907767 0)
(-0.1577136589147693 0.01066993415033915 0)
(-0.1636850056273042 0.01030751234613846 0)
(-0.1694384420635021 0.009904411499762029 0)
(-0.1749512620382442 0.009462222466091234 0)
(-0.1802017089696581 0.008982690363225019 0)
(-0.1851690617424067 0.008467707685296023 0)
(-0.1898337164844635 0.007919306833660822 0)
(-0.1941772639346395 0.007339652095940306 0)
(-0.198182562095527 0.006731031104565201 0)
(-0.2018338038851317 0.006095845808535986 0)
(-0.2051165795202039 0.005436602994027528 0)
(-0.2080179333850692 0.00475590439124927 0)
(-0.2105264151615256 0.004056436406604799 0)
(-0.2126321250180177 0.003340959520672983 0)
(-0.2143267526797494 0.002612297393852276 0)
(-0.2156036102255414 0.001873325722663202 0)
(-0.2164576584820013 0.001126960890687877 0)
(-0.2168855269108383 0.000376148458936471 0)
(-0.2168855269108382 -0.0003761484589364677 0)
(-0.2164576584820012 -0.001126960890687868 0)
(-0.2156036102255414 -0.001873325722663187 0)
(-0.2143267526797494 -0.002612297393852269 0)
(-0.2126321250180177 -0.003340959520672974 0)
(-0.2105264151615257 -0.004056436406604803 0)
(-0.2080179333850692 -0.004755904391249254 0)
(-0.2051165795202039 -0.005436602994027491 0)
(-0.2018338038851319 -0.006095845808535979 0)
(-0.198182562095527 -0.006731031104565211 0)
(-0.1941772639346395 -0.007339652095940316 0)
(-0.1898337164844635 -0.007919306833660825 0)
(-0.1851690617424068 -0.008467707685296009 0)
(-0.1802017089696581 -0.008982690363225014 0)
(-0.1749512620382443 -0.009462222466091222 0)
(-0.1694384420635021 -0.009904411499762024 0)
(-0.1636850056273044 -0.01030751234613846 0)
(-0.1577136589147694 -0.01066993415033915 0)
(-0.1515479681033227 -0.01099024659907767 0)
(-0.1452122663577615 -0.01126718556545572 0)
(-0.1387315577983678 -0.01149965809789434 0)
(-0.1321314188210721 -0.01168674673351464 0)
(-0.1254378971591008 -0.01182771311894446 0)
(-0.1186774090844746 -0.01192200092426194 0)
(-0.111876635155051 -0.01196923803857548 0)
(-0.1050624149185509 -0.01196923803857549 0)
(-0.09826164098912715 -0.01192200092426194 0)
(-0.09150115291450089 -0.01182771311894446 0)
(-0.08480763125252971 -0.01168674673351464 0)
(-0.07820749227523378 -0.01149965809789435 0)
(-0.07172678371584028 -0.01126718556545571 0)
(-0.06539108197027886 -0.01099024659907768 0)
(-0.05922539115883234 -0.01066993415033915 0)
(-0.05325404444629762 -0.01030751234613848 0)
(-0.04750060801009964 -0.009904411499762027 0)
(-0.04198778803535752 -0.009462222466091243 0)
(-0.03673734110394365 -0.008982690363225023 0)
(-0.03176998833119498 -0.008467707685296019 0)
(-0.02710533358913829 -0.007919306833660825 0)
(-0.02276178613896216 -0.007339652095940303 0)
(-0.01875648797807472 -0.006731031104565219 0)
(-0.01510524618846986 -0.006095845808535976 0)
(-0.01182247055339792 -0.005436602994027545 0)
(-0.008921116688532448 -0.004755904391249259 0)
(-0.006412634912076116 -0.004056436406604812 0)
(-0.004306925055583975 -0.003340959520673004 0)
(-0.002612297393852312 -0.002612297393852293 0)
(-0.001335439848060262 -0.001873325722663187 0)
(-0.0004813915916004269 -0.001126960890687884 0)
(-5.352316276343097e-05 -0.0003761484589364725 0)
(-6.845266570025348e-05 0.0006201603332856894 0)
(-0.0006156687308704995 0.001858033510345895 0)
(-0.001707941249401005 0.003088573877995533 0)
(-0.003340959520672975 0.004306925055583906 0)
(-0.005508278767624785 0.005508278767624785 0)
(-0.008201345571342691 0.006687893819863042 0)
(-0.01140953162749762 0.007841114810602354 0)
(-0.01512017569140669 0.008963390503448822 0)
(-0.01931863354618171 0.01005029178896178 0)
(-0.02398833579676279 0.01109752916432526 0)
(-0.02911085326175094 0.01210096966205597 0)
(-0.03466596970496748 0.01305665316093772 0)
(-0.0406317616197023 0.01396080801481066 0)
(-0.04698468475077902 0.01480986593753564 0)
(-0.0536996670129738 0.01560047608538933 0)
(-0.06075020743908131 0.01632951828131355 0)
(-0.06810848076712527 0.01699411532882871 0)
(-0.07574544725395516 0.01759164436701376 0)
(-0.08363096728184564 0.01811974722174004 0)
(-0.0917339203057979 0.01857633971230719 0)
(-0.1000223276721138 0.01895961987675222 0)
(-0.1084634788235313 0.01926807508337008 0)
(-0.117024060392851 0.01950048800038007 0)
(-0.1256702876755766 0.01965594140017809 0)
(-0.1343680379627086 0.01973382177921506 0)
(-0.1430829852074878 0.01973382177921506 0)
(-0.1517807354946198 0.01965594140017809 0)
(-0.1604269627773454 0.01950048800038007 0)
(-0.1689875443466652 0.01926807508337008 0)
(-0.1774286954980827 0.01895961987675221 0)
(-0.1857171028643984 0.01857633971230718 0)
(-0.1938200558883507 0.01811974722174005 0)
(-0.2017055759162413 0.01759164436701376 0)
(-0.209342542403071 0.01699411532882871 0)
(-0.2167008157311151 0.01632951828131356 0)
(-0.2237513561572226 0.01560047608538934 0)
(-0.2304663384194173 0.01480986593753565 0)
(-0.2368192615504939 0.01396080801481066 0)
(-0.242785053465229 0.01305665316093772 0)
(-0.2483401699084455 0.01210096966205597 0)
(-0.2534626873734336 0.01109752916432527 0)
(-0.2581323896240146 0.01005029178896179 0)
(-0.2623308474787897 0.008963390503448847 0)
(-0.2660414915426988 0.007841114810602352 0)
(-0.2692496775988537 0.006687893819863041 0)
(-0.2719427444025716 0.005508278767624798 0)
(-0.2741100636495234 0.004306925055583903 0)
(-0.2757430819207953 0.003088573877995561 0)
(-0.2768353544393259 0.001858033510345905 0)
(-0.2773825705044962 0.0006201603332856884 0)
(-0.2773825705044962 -0.0006201603332856747 0)
(-0.2768353544393258 -0.001858033510345881 0)
(-0.2757430819207954 -0.003088573877995522 0)
(-0.2741100636495233 -0.004306925055583893 0)
(-0.2719427444025718 -0.005508278767624782 0)
(-0.2692496775988536 -0.00668789381986304 0)
(-0.2660414915426989 -0.007841114810602344 0)
(-0.2623308474787897 -0.00896339050344881 0)
(-0.2581323896240147 -0.01005029178896176 0)
(-0.2534626873734336 -0.01109752916432526 0)
(-0.2483401699084455 -0.01210096966205597 0)
(-0.242785053465229 -0.01305665316093771 0)
(-0.2368192615504941 -0.01396080801481066 0)
(-0.2304663384194174 -0.01480986593753564 0)
(-0.2237513561572226 -0.01560047608538931 0)
(-0.2167008157311151 -0.01632951828131355 0)
(-0.2093425424030712 -0.01699411532882868 0)
(-0.2017055759162413 -0.01759164436701377 0)
(-0.1938200558883509 -0.01811974722174004 0)
(-0.1857171028643986 -0.01857633971230718 0)
(-0.1774286954980827 -0.01895961987675221 0)
(-0.1689875443466653 -0.01926807508337008 0)
(-0.1604269627773455 -0.01950048800038008 0)
(-0.1517807354946198 -0.01965594140017808 0)
(-0.1430829852074881 -0.01973382177921505 0)
(-0.1343680379627086 -0.01973382177921502 0)
(-0.1256702876755766 -0.01965594140017811 0)
(-0.1170240603928511 -0.01950048800038007 0)
(-0.1084634788235314 -0.01926807508337008 0)
(-0.1000223276721136 -0.0189596198767522 0)
(-0.0917339203057979 -0.01857633971230719 0)
(-0.08363096728184582 -0.01811974722174005 0)
(-0.07574544725395518 -0.01759164436701376 0)
(-0.06810848076712533 -0.01699411532882872 0)
(-0.06075020743908133 -0.01632951828131355 0)
(-0.05369966701297374 -0.01560047608538932 0)
(-0.04698468475077902 -0.01480986593753564 0)
(-0.0406317616197025 -0.01396080801481069 0)
(-0.03466596970496755 -0.01305665316093772 0)
(-0.02911085326175104 -0.01210096966205599 0)
(-0.02398833579676284 -0.01109752916432528 0)
(-0.01931863354618183 -0.01005029178896181 0)
(-0.01512017569140682 -0.008963390503448857 0)
(-0.0114095316274976 -0.007841114810602347 0)
(-0.008201345571342738 -0.00668789381986306 0)
(-0.005508278767624834 -0.005508278767624809 0)
(-0.003340959520673026 -0.00430692505558394 0)
(-0.001707941249400991 -0.00308857387799552 0)
(-0.0006156687308705073 -0.001858033510345907 0)
(-6.845266570025768e-05 -0.0006201603332857083 0)
(-8.311201723860551e-05 0.0009233645241067171 0)
(-0.0007475161069321202 0.002766449474388627 0)
(-0.002073702186914485 0.004598616512465671 0)
(-0.0040564364066048 0.006412634912076056 0)
(-0.006687893819863041 0.008201345571342689 0)
(-0.009957689266477623 0.009957689266477623 0)
(-0.01385291835764821 0.01167473451131327 0)
(-0.01835820840371281 0.0133457049127116 0)
(-0.02345577908313091 0.01496400591389209 0)
(-0.02912551261328931 0.01652325082013444 0)
(-0.03534503314619934 0.01801728600414498 0)
(-0.04208979507574629 0.01944021519161216 0)
(-0.04933317990798282 0.02078642273110756 0)
(-0.05704660131216385 0.02205059575649651 0)
(-0.06519961793793416 0.02322774515439352 0)
(-0.07376005355343079 0.02431322525391349 0)
(-0.08269412403017042 0.02530275216101231 0)
(-0.09196657067356981 0.0261924206650595 0)
(-0.1015407993729056 0.02697871965092045 0)
(-0.1113790250215503 0.02765854595572383 0)
(-0.1214424206375266 0.02822921661562766 0)
(-0.1316912705958663 0.0286884794542519 0)
(-0.1420851273680382 0.02903452197098979 0)
(-0.1525829711498637 0.02926597849411951 0)
(-0.1631433717479448 0.02938193557048669 0)
(-0.1737246520857088 0.02938193557048669 0)
(-0.1842850526837899 0.02926597849411949 0)
(-0.1947828964656154 0.02903452197098978 0)
(-0.2051767532377873 0.02868847945425191 0)
(-0.215425603196127 0.02822921661562765 0)
(-0.2254889988121033 0.02765854595572383 0)
(-0.235327224460748 0.02697871965092045 0)
(-0.2449014531600837 0.02619242066505949 0)
(-0.2541738998034833 0.02530275216101231 0)
(-0.2631079702802229 0.02431322525391348 0)
(-0.2716684058957196 0.02322774515439355 0)
(-0.2798214225214898 0.02205059575649653 0)
(-0.2875348439256708 0.02078642273110756 0)
(-0.2947782287579073 0.01944021519161216 0)
(-0.3015229906874544 0.01801728600414498 0)
(-0.3077425112203643 0.01652325082013444 0)
(-0.3134122447505228 0.01496400591389209 0)
(-0.3185098154299407 0.01334570491271163 0)
(-0.3230151054760054 0.01167473451131327 0)
(-0.3269103345671761 0.009957689266477629 0)
(-0.3301801300137907 0.008201345571342689 0)
(-0.3328115874270488 0.006412634912076044 0)
(-0.3347943216467392 0.004598616512465686 0)
(-0.3361205077267216 0.002766449474388628 0)
(-0.3367849118164151 0.0009233645241067287 0)
(-0.336784911816415 -0.0009233645241067084 0)
(-0.3361205077267215 -0.002766449474388607 0)
(-0.3347943216467392 -0.004598616512465655 0)
(-0.3328115874270489 -0.006412634912076051 0)
(-0.3301801300137905 -0.008201345571342646 0)
(-0.3269103345671762 -0.009957689266477622 0)
(-0.3230151054760054 -0.01167473451131327 0)
(-0.3185098154299408 -0.01334570491271159 0)
(-0.3134122447505229 -0.01496400591389207 0)
(-0.3077425112203643 -0.01652325082013443 0)
(-0.3015229906874543 -0.01801728600414497 0)
(-0.2947782287579075 -0.01944021519161215 0)
(-0.2875348439256709 -0.02078642273110757 0)
(-0.2798214225214898 -0.0220505957564965 0)
(-0.2716684058957196 -0.02322774515439351 0)
(-0.2631079702802229 -0.02431322525391348 0)
(-0.2541738998034835 -0.0253027521610123 0)
(-0.2449014531600838 -0.02619242066505949 0)
(-0.2353272244607481 -0.02697871965092046 0)
(-0.2254889988121035 -0.02765854595572381 0)
(-0.2154256031961271 -0.02822921661562765 0)
(-0.2051767532377875 -0.02868847945425192 0)
(-0.1947828964656154 -0.02903452197098978 0)
(-0.1842850526837902 -0.02926597849411954 0)
(-0.1737246520857088 -0.02938193557048669 0)
(-0.163143371747945 -0.02938193557048669 0)
(-0.1525829711498637 -0.02926597849411949 0)
(-0.1420851273680381 -0.0290345219709898 0)
(-0.1316912705958663 -0.0286884794542519 0)
(-0.1214424206375266 -0.02822921661562764 0)
(-0.1113790250215502 -0.02765854595572382 0)
(-0.1015407993729057 -0.02697871965092047 0)
(-0.09196657067356984 -0.02619242066505949 0)
(-0.08269412403017048 -0.02530275216101234 0)
(-0.07376005355343078 -0.02431322525391348 0)
(-0.06519961793793409 -0.02322774515439351 0)
(-0.05704660131216419 -0.02205059575649656 0)
(-0.04933317990798294 -0.02078642273110758 0)
(-0.04208979507574626 -0.01944021519161216 0)
(-0.03534503314619935 -0.01801728600414498 0)
(-0.02912551261328935 -0.01652325082013446 0)
(-0.02345577908313082 -0.01496400591389207 0)
(-0.01835820840371277 -0.01334570491271159 0)
(-0.01385291835764818 -0.01167473451131326 0)
(-0.009957689266477634 -0.009957689266477632 0)
(-0.00668789381986306 -0.008201345571342699 0)
(-0.004056436406604793 -0.006412634912076047 0)
(-0.002073702186914492 -0.00459861651246568 0)
(-0.0007475161069321441 -0.002766449474388672 0)
(-8.311201723860598e-05 -0.0009233645241067197 0)
(-9.744336361518577e-05 0.001284564422979205 0)
(-0.0008764133784273047 0.003848623680021777 0)
(-0.002431279169280627 0.00639749417766821 0)
(-0.004755904391249265 0.008921116688532463 0)
(-0.007841114810602351 0.01140953162749761 0)
(-0.01167473451131326 0.0138529183576482 0)
(-0.01624163394783755 0.01624163394783755 0)
(-0.02152378965451713 0.01856625122893153 0)
(-0.02750035537596513 0.02081759599853826 0)
(-0.03414774433771216 0.0229867832273937 0)
(-0.04143972233242933 0.02506525212451294 0)
(-0.04934751125435937 0.02704479992272117 0)
(-0.05783990267335257 0.02891761425122824 0)
(-0.0668833810002827 0.03067630396748699 0)
(-0.07644225575776552 0.03231392832665622 0)
(-0.08647880243416789 0.03382402437354975 0)
(-0.09695341136502003 0.03520063244896774 0)
(-0.1078247440542655 0.03643831970974894 0)
(-0.1190498963184192 0.03753220156972049 0)
(-0.1305845676097789 0.03847796097692821 0)
(-0.1423832358504475 0.03927186545106825 0)
(-0.1543993370871782 0.03991078181388164 0)
(-0.1665854492580237 0.04039218855437741 0)
(-0.1788934793455511 0.04071418578008475 0)
(-0.1912748531780087 0.04087550271506021 0)
(-0.2036807071293917 0.04087550271506021 0)
(-0.2160620809618493 0.04071418578008473 0)
(-0.2283701110493767 0.04039218855437744 0)
(-0.2405562232202219 0.03991078181388163 0)
(-0.2525723244569528 0.03927186545106828 0)
(-0.2643709926976214 0.03847796097692824 0)